
     Program PWSCF v.7.4 starts on  6Dec2024 at 11:22:47 

     This program is part of the open-source Quantum ESPRESSO suite
     for quantum simulation of materials; please cite
         "P. Giannozzi et al., J. Phys.:Condens. Matter 21 395502 (2009);
         "P. Giannozzi et al., J. Phys.:Condens. Matter 29 465901 (2017);
         "P. Giannozzi et al., J. Chem. Phys. 152 154105 (2020);
          URL http://www.quantum-espresso.org", 
     in publications or presentations arising from this work. More details at
     http://www.quantum-espresso.org/quote

     Parallel version (MPI), running on     1 processors

     MPI processes distributed on     1 nodes
     8499 MiB available memory on the printing compute node when the environment starts

     Waiting for input...
     Reading input from standard input

     Current dimensions of program PWSCF are:
     Max number of different atomic species (ntypx) = 10
     Max number of k-points (npk) =  40000
     Max angular momentum in pseudopotentials (lmaxx) =  4

     gamma-point specific algorithms are used

     Subspace diagonalization in iterative solution of the eigenvalue problem:
     a serial algorithm will be used


     G-vector sticks info
     --------------------
     sticks:   dense  smooth     PW     G-vecs:    dense   smooth      PW
     Sum        8961    8961   2233               636619   636619   79501

     Using Slab Decomposition



     bravais-lattice index     =            1
     lattice parameter (alat)  =      30.6000  a.u.
     unit-cell volume          =   28652.6160 (a.u.)^3
     number of atoms/cell      =            3
     number of atomic types    =            2
     number of electrons       =         8.00
     number of Kohn-Sham states=           10
     kinetic-energy cutoff     =      30.0000  Ry
     charge density cutoff     =     120.0000  Ry
     scf convergence threshold =      1.0E-06
     mixing beta               =       0.7000
     number of iterations used =            8  plain     mixing
     Exchange-correlation= PBE
                           (   1   4   3   4   0   0   0)

     celldm(1)=  30.600000  celldm(2)=   0.000000  celldm(3)=   0.000000
     celldm(4)=   0.000000  celldm(5)=   0.000000  celldm(6)=   0.000000

     crystal axes: (cart. coord. in units of alat)
               a(1) = (   1.000000   0.000000   0.000000 )  
               a(2) = (   0.000000   1.000000   0.000000 )  
               a(3) = (   0.000000   0.000000   1.000000 )  

     reciprocal axes: (cart. coord. in units 2 pi/alat)
               b(1) = (  1.000000  0.000000  0.000000 )  
               b(2) = (  0.000000  1.000000  0.000000 )  
               b(3) = (  0.000000  0.000000  1.000000 )  


     PseudoPot. # 1 for H  read from file:
     /home/paolo/water_2/pp/H_ONCV_PBE-1.2.upf
     MD5 check sum: bf21e08b90ac4ce7d0149ac4e8138190
     Pseudo is Norm-conserving, Zval =  1.0
     Generated using ONCVPSP code by D. R. Hamann
     Using radial grid of  602 points,  2 beta functions with: 
                l(1) =   0
                l(2) =   0

     PseudoPot. # 2 for O  read from file:
     /home/paolo/water_2/pp/O_ONCV_PBE-1.2.upf
     MD5 check sum: e36c48deb68f4e355fffe4602be2c42c
     Pseudo is Norm-conserving, Zval =  6.0
     Generated using ONCVPSP code by D. R. Hamann
     Using radial grid of  602 points,  4 beta functions with: 
                l(1) =   0
                l(2) =   0
                l(3) =   1
                l(4) =   1

     atomic species   valence    mass     pseudopotential
     H                 1.00     1.00794     H ( 1.00)
     O                 6.00    15.99900     O ( 1.00)

     No symmetry found



   Cartesian axes

     site n.     atom                  positions (alat units)
         1        O      tau(   1) = (   0.1242374   0.1493704   0.0009745  )
         2        H      tau(   2) = (   0.1887788   0.1428273  -0.0005135  )
         3        H      tau(   3) = (   0.1091320   0.0878719  -0.0128930  )

     number of k points=     1
                       cart. coord. in units 2pi/alat
        k(    1) = (   0.0000000   0.0000000   0.0000000), wk =   2.0000000

     Dense  grid:   318310 G-vectors     FFT dimensions: ( 108, 108, 108)

     Estimated max dynamical RAM per process >     266.69 MB

     Initial potential from superposition of free atoms

     starting charge       7.9948, renormalised to       8.0000

     negative rho (up, down):  2.016E-01 0.000E+00
     Starting wfcs are random

     total cpu time spent up to now is        2.2 secs

     Self-consistent Calculation

     iteration #  1     ecut=    30.00 Ry     beta= 0.70
     Davidson diagonalization with overlap
     ethr =  1.00E-02,  avg # of iterations = 12.0

     negative rho (up, down):  5.793E-02 0.000E+00

     total cpu time spent up to now is        4.4 secs

     total energy              =     -33.55092812 Ry
     estimated scf accuracy    <       0.13766212 Ry

     iteration #  2     ecut=    30.00 Ry     beta= 0.70
     Davidson diagonalization with overlap
     ethr =  1.72E-03,  avg # of iterations =  7.0

     negative rho (up, down):  1.478E-02 0.000E+00

     total cpu time spent up to now is        5.6 secs

     total energy              =     -33.55902579 Ry
     estimated scf accuracy    <       0.01323822 Ry

     iteration #  3     ecut=    30.00 Ry     beta= 0.70
     Davidson diagonalization with overlap
     ethr =  1.65E-04,  avg # of iterations = 12.0

     negative rho (up, down):  2.062E-03 0.000E+00

     total cpu time spent up to now is        7.1 secs

     total energy              =     -33.56085706 Ry
     estimated scf accuracy    <       0.00445354 Ry

     iteration #  4     ecut=    30.00 Ry     beta= 0.70
     Davidson diagonalization with overlap
     ethr =  5.57E-05,  avg # of iterations = 16.0

     negative rho (up, down):  2.566E-04 0.000E+00

     total cpu time spent up to now is        8.4 secs

     total energy              =     -33.56176574 Ry
     estimated scf accuracy    <       0.00002754 Ry

     iteration #  5     ecut=    30.00 Ry     beta= 0.70
     Davidson diagonalization with overlap
     c_bands:  3 eigenvalues not converged
     ethr =  3.44E-07,  avg # of iterations = 20.0

     total cpu time spent up to now is       11.0 secs

     total energy              =     -33.56177290 Ry
     estimated scf accuracy    <       0.00000485 Ry

     iteration #  6     ecut=    30.00 Ry     beta= 0.70
     Davidson diagonalization with overlap
     c_bands:  1 eigenvalues not converged
     ethr =  6.07E-08,  avg # of iterations = 20.0

     total cpu time spent up to now is       12.8 secs

     End of self-consistent calculation

          k = 0.0000 0.0000 0.0000 ( 39751 PWs)   bands (ev):

   -25.9154 -12.1895  -9.7976  -7.0122  -1.2369  -0.0344   0.2281   0.3915
     0.4055   0.4615

     highest occupied, lowest unoccupied level (ev):    -7.0122   -1.2369

!    total energy              =     -33.56177395 Ry
     estimated scf accuracy    <       0.00000050 Ry

     The total energy is the sum of the following terms:
     one-electron contribution =     -67.02488141 Ry
     hartree contribution      =      34.73072933 Ry
     xc contribution           =      -8.10436804 Ry
     ewald contribution        =       6.83674617 Ry

     charge density inside the Wigner-Seitz cell:    8.00000000

     reference position (x0):         3.99075622    4.31047608   -0.02891513 bohr

     Dipole moments (with respect to x0):
     Elect   0.3999  -0.5508  -0.1243 au (Ha),   1.0165  -1.4000  -0.3159 Debye
     Ionic  -0.0000   0.0000   0.0000 au (Ha),  -0.0000   0.0000   0.0000 Debye
     Total   0.3999  -0.5508  -0.1243 au (Ha),   1.0165  -1.4000  -0.3159 Debye

     Electrons quadrupole moment        -22.16360849 a.u. (Ha)
          Ions quadrupole moment          7.02223687 a.u. (Ha)
         Total quadrupole moment        -15.14137162 a.u. (Ha)

     *********    MAKOV-PAYNE CORRECTION    *********

     Makov-Payne correction with Madelung constant =   2.8373

     Makov-Payne correction     0.00000000 Ry =  0.000 eV (1st order, 1/a0)
                                0.00006999 Ry =  0.001 eV (2nd order, 1/a0^3)
                                0.00006999 Ry =  0.001 eV (total)

!    Total+Makov-Payne energy  =     -33.56170396 Ry
     Corrected vacuum level    =       0.03053748 eV

     convergence has been achieved in   6 iterations

     Writing all to output data dir ./ediff_file/water.save/ :
     XML data file, charge density, pseudopotentials, collected wavefunctions

     init_run     :      1.64s CPU      2.18s WALL (       1 calls)
     electrons    :     10.50s CPU     10.70s WALL (       1 calls)

     Called by init_run:
     wfcinit      :      0.53s CPU      0.68s WALL (       1 calls)
     potinit      :      0.39s CPU      0.61s WALL (       1 calls)
     hinit0       :      0.62s CPU      0.78s WALL (       1 calls)

     Called by electrons:
     c_bands      :      8.22s CPU      8.26s WALL (       6 calls)
     sum_band     :      0.56s CPU      0.58s WALL (       6 calls)
     v_of_rho     :      1.75s CPU      2.08s WALL (       7 calls)
     mix_rho      :      0.19s CPU      0.18s WALL (       6 calls)

     Called by c_bands:
     init_us_2    :      0.08s CPU      0.07s WALL (      13 calls)
     regterg      :      8.16s CPU      8.21s WALL (       6 calls)

     Called by *egterg:
     rdiaghg      :      0.00s CPU      0.01s WALL (      93 calls)
     h_psi        :      6.27s CPU      6.42s WALL (      94 calls)
     g_psi        :      0.08s CPU      0.04s WALL (      87 calls)

     Called by h_psi:
     h_psi:calbec :      0.41s CPU      0.42s WALL (      94 calls)
     vloc_psi     :      5.58s CPU      5.74s WALL (      94 calls)
     add_vuspsi   :      0.25s CPU      0.24s WALL (      94 calls)

     General routines
     calbec       :      0.41s CPU      0.42s WALL (      94 calls)
     fft          :      1.14s CPU      1.30s WALL (      55 calls)
     ffts         :      0.09s CPU      0.08s WALL (       6 calls)
     fftw         :      4.97s CPU      5.13s WALL (     504 calls)

     Parallel routines

     PWSCF        :     12.16s CPU     12.93s WALL


   This run was terminated on:  11:23: 0   6Dec2024            

=------------------------------------------------------------------------------=
   JOB DONE.
=------------------------------------------------------------------------------=
