
     Program PWSCF v.7.4 starts on  6Dec2024 at 11:22:28 

     This program is part of the open-source Quantum ESPRESSO suite
     for quantum simulation of materials; please cite
         "P. Giannozzi et al., J. Phys.:Condens. Matter 21 395502 (2009);
         "P. Giannozzi et al., J. Phys.:Condens. Matter 29 465901 (2017);
         "P. Giannozzi et al., J. Chem. Phys. 152 154105 (2020);
          URL http://www.quantum-espresso.org", 
     in publications or presentations arising from this work. More details at
     http://www.quantum-espresso.org/quote

     Parallel version (MPI), running on     1 processors

     MPI processes distributed on     1 nodes
     8509 MiB available memory on the printing compute node when the environment starts

     Waiting for input...
     Reading input from standard input

     Current dimensions of program PWSCF are:
     Max number of different atomic species (ntypx) = 10
     Max number of k-points (npk) =  40000
     Max angular momentum in pseudopotentials (lmaxx) =  4

     gamma-point specific algorithms are used

     Subspace diagonalization in iterative solution of the eigenvalue problem:
     a serial algorithm will be used


     G-vector sticks info
     --------------------
     sticks:   dense  smooth     PW     G-vecs:    dense   smooth      PW
     Sum        5957    5957   1481               346275   346275   43387

     Using Slab Decomposition



     bravais-lattice index     =            1
     lattice parameter (alat)  =      30.6000  a.u.
     unit-cell volume          =   28652.6160 (a.u.)^3
     number of atoms/cell      =            3
     number of atomic types    =            2
     number of electrons       =         8.00
     number of Kohn-Sham states=           10
     kinetic-energy cutoff     =      20.0000  Ry
     charge density cutoff     =      80.0000  Ry
     scf convergence threshold =      1.0E-06
     mixing beta               =       0.7000
     number of iterations used =            8  plain     mixing
     Exchange-correlation= PBE
                           (   1   4   3   4   0   0   0)

     celldm(1)=  30.600000  celldm(2)=   0.000000  celldm(3)=   0.000000
     celldm(4)=   0.000000  celldm(5)=   0.000000  celldm(6)=   0.000000

     crystal axes: (cart. coord. in units of alat)
               a(1) = (   1.000000   0.000000   0.000000 )  
               a(2) = (   0.000000   1.000000   0.000000 )  
               a(3) = (   0.000000   0.000000   1.000000 )  

     reciprocal axes: (cart. coord. in units 2 pi/alat)
               b(1) = (  1.000000  0.000000  0.000000 )  
               b(2) = (  0.000000  1.000000  0.000000 )  
               b(3) = (  0.000000  0.000000  1.000000 )  


     PseudoPot. # 1 for H  read from file:
     /home/paolo/water_2/pp/H_ONCV_PBE-1.2.upf
     MD5 check sum: bf21e08b90ac4ce7d0149ac4e8138190
     Pseudo is Norm-conserving, Zval =  1.0
     Generated using ONCVPSP code by D. R. Hamann
     Using radial grid of  602 points,  2 beta functions with: 
                l(1) =   0
                l(2) =   0

     PseudoPot. # 2 for O  read from file:
     /home/paolo/water_2/pp/O_ONCV_PBE-1.2.upf
     MD5 check sum: e36c48deb68f4e355fffe4602be2c42c
     Pseudo is Norm-conserving, Zval =  6.0
     Generated using ONCVPSP code by D. R. Hamann
     Using radial grid of  602 points,  4 beta functions with: 
                l(1) =   0
                l(2) =   0
                l(3) =   1
                l(4) =   1

     atomic species   valence    mass     pseudopotential
     H                 1.00     1.00794     H ( 1.00)
     O                 6.00    15.99900     O ( 1.00)

     No symmetry found



   Cartesian axes

     site n.     atom                  positions (alat units)
         1        O      tau(   1) = (   0.1242374   0.1493704   0.0009745  )
         2        H      tau(   2) = (   0.1887788   0.1428273  -0.0005135  )
         3        H      tau(   3) = (   0.1091320   0.0878719  -0.0128930  )

     number of k points=     1
                       cart. coord. in units 2pi/alat
        k(    1) = (   0.0000000   0.0000000   0.0000000), wk =   2.0000000

     Dense  grid:   173138 G-vectors     FFT dimensions: (  90,  90,  90)

     Estimated max dynamical RAM per process >     148.22 MB

     Initial potential from superposition of free atoms

     starting charge       7.9948, renormalised to       8.0000

     negative rho (up, down):  9.358E-01 0.000E+00
     Starting wfcs are random

     total cpu time spent up to now is        1.3 secs

     Self-consistent Calculation

     iteration #  1     ecut=    20.00 Ry     beta= 0.70
     Davidson diagonalization with overlap
     ethr =  1.00E-02,  avg # of iterations = 10.0

     negative rho (up, down):  2.638E-01 0.000E+00

     total cpu time spent up to now is        2.4 secs

     total energy              =     -32.43051605 Ry
     estimated scf accuracy    <       0.39089538 Ry

     iteration #  2     ecut=    20.00 Ry     beta= 0.70
     Davidson diagonalization with overlap
     ethr =  4.89E-03,  avg # of iterations =  4.0

     negative rho (up, down):  1.410E-01 0.000E+00

     total cpu time spent up to now is        2.9 secs

     total energy              =     -32.49566470 Ry
     estimated scf accuracy    <       0.16305499 Ry

     iteration #  3     ecut=    20.00 Ry     beta= 0.70
     Davidson diagonalization with overlap
     ethr =  2.04E-03,  avg # of iterations =  5.0

     negative rho (up, down):  9.086E-03 0.000E+00

     total cpu time spent up to now is        3.3 secs

     total energy              =     -32.52882243 Ry
     estimated scf accuracy    <       0.00489970 Ry

     iteration #  4     ecut=    20.00 Ry     beta= 0.70
     Davidson diagonalization with overlap
     ethr =  6.12E-05,  avg # of iterations = 13.0

     negative rho (up, down):  2.761E-03 0.000E+00

     total cpu time spent up to now is        4.3 secs

     total energy              =     -32.52881614 Ry
     estimated scf accuracy    <       0.00081381 Ry

     iteration #  5     ecut=    20.00 Ry     beta= 0.70
     Davidson diagonalization with overlap
     ethr =  1.02E-05,  avg # of iterations = 16.0

     negative rho (up, down):  1.906E-04 0.000E+00

     total cpu time spent up to now is        5.0 secs

     total energy              =     -32.52898338 Ry
     estimated scf accuracy    <       0.00000402 Ry

     iteration #  6     ecut=    20.00 Ry     beta= 0.70
     Davidson diagonalization with overlap
     c_bands:  4 eigenvalues not converged
     ethr =  5.02E-08,  avg # of iterations = 20.0

     negative rho (up, down):  6.266E-06 0.000E+00

     total cpu time spent up to now is        6.2 secs

     total energy              =     -32.52898747 Ry
     estimated scf accuracy    <       0.00000182 Ry

     iteration #  7     ecut=    20.00 Ry     beta= 0.70
     Davidson diagonalization with overlap
     c_bands:  3 eigenvalues not converged
     ethr =  2.28E-08,  avg # of iterations = 20.0

     total cpu time spent up to now is        7.3 secs

     End of self-consistent calculation

          k = 0.0000 0.0000 0.0000 ( 21694 PWs)   bands (ev):

   -28.3248 -12.0952 -10.0155  -6.8575  -1.3068  -0.0736   0.2329   0.3540
     0.3555   0.4164

     highest occupied, lowest unoccupied level (ev):    -6.8575   -1.3068

!    total energy              =     -32.52898840 Ry
     estimated scf accuracy    <       0.00000014 Ry

     The total energy is the sum of the following terms:
     one-electron contribution =     -64.80556553 Ry
     hartree contribution      =      33.26459735 Ry
     xc contribution           =      -7.82476642 Ry
     ewald contribution        =       6.83674621 Ry

     charge density inside the Wigner-Seitz cell:    8.00000000

     reference position (x0):         3.99075622    4.31047608   -0.02891513 bohr

     Dipole moments (with respect to x0):
     Elect   0.3223  -0.4431  -0.0998 au (Ha),   0.8191  -1.1263  -0.2537 Debye
     Ionic  -0.0000   0.0000   0.0000 au (Ha),  -0.0000   0.0000   0.0000 Debye
     Total   0.3223  -0.4431  -0.0998 au (Ha),   0.8191  -1.1263  -0.2537 Debye

     Electrons quadrupole moment        -23.69181717 a.u. (Ha)
          Ions quadrupole moment          7.02223687 a.u. (Ha)
         Total quadrupole moment        -16.66958031 a.u. (Ha)

     *********    MAKOV-PAYNE CORRECTION    *********

     Makov-Payne correction with Madelung constant =   2.8373

     Makov-Payne correction     0.00000000 Ry =  0.000 eV (1st order, 1/a0)
                                0.00004535 Ry =  0.001 eV (2nd order, 1/a0^3)
                                0.00004535 Ry =  0.001 eV (total)

!    Total+Makov-Payne energy  =     -32.52894305 Ry
     Corrected vacuum level    =       0.03413873 eV

     convergence has been achieved in   7 iterations

     Writing all to output data dir ./ediff_file/water.save/ :
     XML data file, charge density, pseudopotentials, collected wavefunctions

     init_run     :      0.97s CPU      1.31s WALL (       1 calls)
     electrons    :      5.88s CPU      6.07s WALL (       1 calls)

     Called by init_run:
     wfcinit      :      0.31s CPU      0.42s WALL (       1 calls)
     potinit      :      0.23s CPU      0.36s WALL (       1 calls)
     hinit0       :      0.38s CPU      0.48s WALL (       1 calls)

     Called by electrons:
     c_bands      :      4.47s CPU      4.48s WALL (       7 calls)
     sum_band     :      0.33s CPU      0.33s WALL (       7 calls)
     v_of_rho     :      1.05s CPU      1.34s WALL (       8 calls)
     mix_rho      :      0.12s CPU      0.15s WALL (       7 calls)

     Called by c_bands:
     init_us_2    :      0.03s CPU      0.04s WALL (      15 calls)
     regterg      :      4.45s CPU      4.45s WALL (       7 calls)

     Called by *egterg:
     rdiaghg      :      0.02s CPU      0.01s WALL (      95 calls)
     h_psi        :      3.36s CPU      3.45s WALL (      96 calls)
     g_psi        :      0.06s CPU      0.02s WALL (      88 calls)

     Called by h_psi:
     h_psi:calbec :      0.28s CPU      0.25s WALL (      96 calls)
     vloc_psi     :      2.97s CPU      3.05s WALL (      96 calls)
     add_vuspsi   :      0.11s CPU      0.13s WALL (      96 calls)

     General routines
     calbec       :      0.28s CPU      0.25s WALL (      96 calls)
     fft          :      0.72s CPU      0.77s WALL (      63 calls)
     ffts         :      0.05s CPU      0.05s WALL (       7 calls)
     fftw         :      2.62s CPU      2.70s WALL (     577 calls)

     Parallel routines

     PWSCF        :      6.88s CPU      7.41s WALL


   This run was terminated on:  11:22:36   6Dec2024            

=------------------------------------------------------------------------------=
   JOB DONE.
=------------------------------------------------------------------------------=
