
     Program PWSCF v.7.4 starts on  6Dec2024 at 11:23:39 

     This program is part of the open-source Quantum ESPRESSO suite
     for quantum simulation of materials; please cite
         "P. Giannozzi et al., J. Phys.:Condens. Matter 21 395502 (2009);
         "P. Giannozzi et al., J. Phys.:Condens. Matter 29 465901 (2017);
         "P. Giannozzi et al., J. Chem. Phys. 152 154105 (2020);
          URL http://www.quantum-espresso.org", 
     in publications or presentations arising from this work. More details at
     http://www.quantum-espresso.org/quote

     Parallel version (MPI), running on     1 processors

     MPI processes distributed on     1 nodes
     8595 MiB available memory on the printing compute node when the environment starts

     Waiting for input...
     Reading input from standard input

     Current dimensions of program PWSCF are:
     Max number of different atomic species (ntypx) = 10
     Max number of k-points (npk) =  40000
     Max angular momentum in pseudopotentials (lmaxx) =  4

     gamma-point specific algorithms are used

     Subspace diagonalization in iterative solution of the eigenvalue problem:
     a serial algorithm will be used


     G-vector sticks info
     --------------------
     sticks:   dense  smooth     PW     G-vecs:    dense   smooth      PW
     Sum       17889   17889   4477              1798911  1798911  225055

     Using Slab Decomposition



     bravais-lattice index     =            1
     lattice parameter (alat)  =      30.6000  a.u.
     unit-cell volume          =   28652.6160 (a.u.)^3
     number of atoms/cell      =            3
     number of atomic types    =            2
     number of electrons       =         8.00
     number of Kohn-Sham states=           10
     kinetic-energy cutoff     =      60.0000  Ry
     charge density cutoff     =     240.0000  Ry
     scf convergence threshold =      1.0E-06
     mixing beta               =       0.7000
     number of iterations used =            8  plain     mixing
     Exchange-correlation= PBE
                           (   1   4   3   4   0   0   0)

     celldm(1)=  30.600000  celldm(2)=   0.000000  celldm(3)=   0.000000
     celldm(4)=   0.000000  celldm(5)=   0.000000  celldm(6)=   0.000000

     crystal axes: (cart. coord. in units of alat)
               a(1) = (   1.000000   0.000000   0.000000 )  
               a(2) = (   0.000000   1.000000   0.000000 )  
               a(3) = (   0.000000   0.000000   1.000000 )  

     reciprocal axes: (cart. coord. in units 2 pi/alat)
               b(1) = (  1.000000  0.000000  0.000000 )  
               b(2) = (  0.000000  1.000000  0.000000 )  
               b(3) = (  0.000000  0.000000  1.000000 )  


     PseudoPot. # 1 for H  read from file:
     /home/paolo/water_2/pp/H_ONCV_PBE-1.2.upf
     MD5 check sum: bf21e08b90ac4ce7d0149ac4e8138190
     Pseudo is Norm-conserving, Zval =  1.0
     Generated using ONCVPSP code by D. R. Hamann
     Using radial grid of  602 points,  2 beta functions with: 
                l(1) =   0
                l(2) =   0

     PseudoPot. # 2 for O  read from file:
     /home/paolo/water_2/pp/O_ONCV_PBE-1.2.upf
     MD5 check sum: e36c48deb68f4e355fffe4602be2c42c
     Pseudo is Norm-conserving, Zval =  6.0
     Generated using ONCVPSP code by D. R. Hamann
     Using radial grid of  602 points,  4 beta functions with: 
                l(1) =   0
                l(2) =   0
                l(3) =   1
                l(4) =   1

     atomic species   valence    mass     pseudopotential
     H                 1.00     1.00794     H ( 1.00)
     O                 6.00    15.99900     O ( 1.00)

     No symmetry found



   Cartesian axes

     site n.     atom                  positions (alat units)
         1        O      tau(   1) = (   0.1242374   0.1493704   0.0009745  )
         2        H      tau(   2) = (   0.1887788   0.1428273  -0.0005135  )
         3        H      tau(   3) = (   0.1091320   0.0878719  -0.0128930  )

     number of k points=     1
                       cart. coord. in units 2pi/alat
        k(    1) = (   0.0000000   0.0000000   0.0000000), wk =   2.0000000

     Dense  grid:   899456 G-vectors     FFT dimensions: ( 160, 160, 160)

     Estimated max dynamical RAM per process >     789.79 MB

     Initial potential from superposition of free atoms

     starting charge       7.9948, renormalised to       8.0000

     negative rho (up, down):  4.723E-03 0.000E+00
     Starting wfcs are random

     total cpu time spent up to now is        6.0 secs

     Self-consistent Calculation

     iteration #  1     ecut=    60.00 Ry     beta= 0.70
     Davidson diagonalization with overlap
     ethr =  1.00E-02,  avg # of iterations = 11.0

     negative rho (up, down):  1.046E-03 0.000E+00

     total cpu time spent up to now is       14.1 secs

     total energy              =     -34.15093352 Ry
     estimated scf accuracy    <       0.34165206 Ry

     iteration #  2     ecut=    60.00 Ry     beta= 0.70
     Davidson diagonalization with overlap
     ethr =  4.27E-03,  avg # of iterations =  3.0

     negative rho (up, down):  5.577E-04 0.000E+00

     total cpu time spent up to now is       18.0 secs

     total energy              =     -34.21959960 Ry
     estimated scf accuracy    <       0.30817304 Ry

     iteration #  3     ecut=    60.00 Ry     beta= 0.70
     Davidson diagonalization with overlap
     ethr =  3.85E-03,  avg # of iterations =  2.0

     negative rho (up, down):  5.472E-05 0.000E+00

     total cpu time spent up to now is       21.2 secs

     total energy              =     -34.27916321 Ry
     estimated scf accuracy    <       0.00325916 Ry

     iteration #  4     ecut=    60.00 Ry     beta= 0.70
     Davidson diagonalization with overlap
     ethr =  4.07E-05,  avg # of iterations = 17.0

     negative rho (up, down):  4.304E-08 0.000E+00

     total cpu time spent up to now is       30.0 secs

     total energy              =     -34.28009876 Ry
     estimated scf accuracy    <       0.00126296 Ry

     iteration #  5     ecut=    60.00 Ry     beta= 0.70
     Davidson diagonalization with overlap
     ethr =  1.58E-05,  avg # of iterations =  2.0

     negative rho (up, down):  1.898E-08 0.000E+00

     total cpu time spent up to now is       33.2 secs

     total energy              =     -34.27999440 Ry
     estimated scf accuracy    <       0.00031729 Ry

     iteration #  6     ecut=    60.00 Ry     beta= 0.70
     Davidson diagonalization with overlap
     ethr =  3.97E-06,  avg # of iterations =  7.0

     negative rho (up, down):  4.915E-08 0.000E+00

     total cpu time spent up to now is       38.5 secs

     total energy              =     -34.28007678 Ry
     estimated scf accuracy    <       0.00002584 Ry

     iteration #  7     ecut=    60.00 Ry     beta= 0.70
     Davidson diagonalization with overlap
     c_bands:  2 eigenvalues not converged
     ethr =  3.23E-07,  avg # of iterations = 20.0

     total cpu time spent up to now is       45.9 secs

     End of self-consistent calculation

          k = 0.0000 0.0000 0.0000 (112528 PWs)   bands (ev):

   -24.5815 -12.0871  -9.5144  -7.0781  -1.2489   0.0420   0.2160   0.4526
     0.4788   0.5423

     highest occupied, lowest unoccupied level (ev):    -7.0781   -1.2489

!    total energy              =     -34.28008242 Ry
     estimated scf accuracy    <       0.00000036 Ry

     The total energy is the sum of the following terms:
     one-electron contribution =     -68.57775799 Ry
     hartree contribution      =      35.74391885 Ry
     xc contribution           =      -8.28298949 Ry
     ewald contribution        =       6.83674622 Ry

     charge density inside the Wigner-Seitz cell:    8.00000000

     reference position (x0):         3.99075622    4.31047608   -0.02891513 bohr

     Dipole moments (with respect to x0):
     Elect   0.4412  -0.6078  -0.1373 au (Ha),   1.1215  -1.5448  -0.3489 Debye
     Ionic  -0.0000   0.0000   0.0000 au (Ha),  -0.0000   0.0000   0.0000 Debye
     Total   0.4412  -0.6078  -0.1373 au (Ha),   1.1215  -1.5448  -0.3489 Debye

     Electrons quadrupole moment        -21.30218967 a.u. (Ha)
          Ions quadrupole moment          7.02223687 a.u. (Ha)
         Total quadrupole moment        -14.27995280 a.u. (Ha)

     *********    MAKOV-PAYNE CORRECTION    *********

     Makov-Payne correction with Madelung constant =   2.8373

     Makov-Payne correction     0.00000000 Ry =  0.000 eV (1st order, 1/a0)
                                0.00008522 Ry =  0.001 eV (2nd order, 1/a0^3)
                                0.00008522 Ry =  0.001 eV (total)

!    Total+Makov-Payne energy  =     -34.27999720 Ry
     Corrected vacuum level    =       0.02842181 eV

     convergence has been achieved in   7 iterations

     Writing all to output data dir ./ediff_file/water.save/ :
     XML data file, charge density, pseudopotentials, collected wavefunctions

     init_run     :      4.28s CPU      6.03s WALL (       1 calls)
     electrons    :     37.53s CPU     40.11s WALL (       1 calls)

     Called by init_run:
     wfcinit      :      1.61s CPU      1.90s WALL (       1 calls)
     potinit      :      0.95s CPU      1.87s WALL (       1 calls)
     hinit0       :      1.47s CPU      1.94s WALL (       1 calls)

     Called by electrons:
     c_bands      :     28.53s CPU     28.54s WALL (       7 calls)
     sum_band     :      2.61s CPU      2.63s WALL (       7 calls)
     v_of_rho     :      6.08s CPU      9.32s WALL (       8 calls)
     mix_rho      :      0.75s CPU      0.79s WALL (       7 calls)

     Called by c_bands:
     init_us_2    :      0.25s CPU      0.25s WALL (      15 calls)
     regterg      :     28.34s CPU     28.37s WALL (       7 calls)

     Called by *egterg:
     rdiaghg      :      0.00s CPU      0.01s WALL (      69 calls)
     h_psi        :     23.78s CPU     24.14s WALL (      70 calls)
     g_psi        :      0.12s CPU      0.10s WALL (      62 calls)

     Called by h_psi:
     h_psi:calbec :      1.06s CPU      1.08s WALL (      70 calls)
     vloc_psi     :     22.02s CPU     22.28s WALL (      70 calls)
     add_vuspsi   :      0.66s CPU      0.69s WALL (      70 calls)

     General routines
     calbec       :      1.06s CPU      1.08s WALL (      70 calls)
     fft          :      3.98s CPU      4.19s WALL (      63 calls)
     ffts         :      0.31s CPU      0.31s WALL (       7 calls)
     fftw         :     20.72s CPU     20.88s WALL (     457 calls)

     Parallel routines

     PWSCF        :     41.84s CPU     46.22s WALL


   This run was terminated on:  11:24:25   6Dec2024            

=------------------------------------------------------------------------------=
   JOB DONE.
=------------------------------------------------------------------------------=
