
     Program PWSCF v.7.4 starts on  6Dec2024 at 11:22:36 

     This program is part of the open-source Quantum ESPRESSO suite
     for quantum simulation of materials; please cite
         "P. Giannozzi et al., J. Phys.:Condens. Matter 21 395502 (2009);
         "P. Giannozzi et al., J. Phys.:Condens. Matter 29 465901 (2017);
         "P. Giannozzi et al., J. Chem. Phys. 152 154105 (2020);
          URL http://www.quantum-espresso.org", 
     in publications or presentations arising from this work. More details at
     http://www.quantum-espresso.org/quote

     Parallel version (MPI), running on     1 processors

     MPI processes distributed on     1 nodes
     8511 MiB available memory on the printing compute node when the environment starts

     Waiting for input...
     Reading input from standard input

     Current dimensions of program PWSCF are:
     Max number of different atomic species (ntypx) = 10
     Max number of k-points (npk) =  40000
     Max angular momentum in pseudopotentials (lmaxx) =  4

     gamma-point specific algorithms are used

     Subspace diagonalization in iterative solution of the eigenvalue problem:
     a serial algorithm will be used


     G-vector sticks info
     --------------------
     sticks:   dense  smooth     PW     G-vecs:    dense   smooth      PW
     Sum        7433    7433   1869               483849   483849   60269

     Using Slab Decomposition



     bravais-lattice index     =            1
     lattice parameter (alat)  =      30.6000  a.u.
     unit-cell volume          =   28652.6160 (a.u.)^3
     number of atoms/cell      =            3
     number of atomic types    =            2
     number of electrons       =         8.00
     number of Kohn-Sham states=           10
     kinetic-energy cutoff     =      25.0000  Ry
     charge density cutoff     =     100.0000  Ry
     scf convergence threshold =      1.0E-06
     mixing beta               =       0.7000
     number of iterations used =            8  plain     mixing
     Exchange-correlation= PBE
                           (   1   4   3   4   0   0   0)

     celldm(1)=  30.600000  celldm(2)=   0.000000  celldm(3)=   0.000000
     celldm(4)=   0.000000  celldm(5)=   0.000000  celldm(6)=   0.000000

     crystal axes: (cart. coord. in units of alat)
               a(1) = (   1.000000   0.000000   0.000000 )  
               a(2) = (   0.000000   1.000000   0.000000 )  
               a(3) = (   0.000000   0.000000   1.000000 )  

     reciprocal axes: (cart. coord. in units 2 pi/alat)
               b(1) = (  1.000000  0.000000  0.000000 )  
               b(2) = (  0.000000  1.000000  0.000000 )  
               b(3) = (  0.000000  0.000000  1.000000 )  


     PseudoPot. # 1 for H  read from file:
     /home/paolo/water_2/pp/H_ONCV_PBE-1.2.upf
     MD5 check sum: bf21e08b90ac4ce7d0149ac4e8138190
     Pseudo is Norm-conserving, Zval =  1.0
     Generated using ONCVPSP code by D. R. Hamann
     Using radial grid of  602 points,  2 beta functions with: 
                l(1) =   0
                l(2) =   0

     PseudoPot. # 2 for O  read from file:
     /home/paolo/water_2/pp/O_ONCV_PBE-1.2.upf
     MD5 check sum: e36c48deb68f4e355fffe4602be2c42c
     Pseudo is Norm-conserving, Zval =  6.0
     Generated using ONCVPSP code by D. R. Hamann
     Using radial grid of  602 points,  4 beta functions with: 
                l(1) =   0
                l(2) =   0
                l(3) =   1
                l(4) =   1

     atomic species   valence    mass     pseudopotential
     H                 1.00     1.00794     H ( 1.00)
     O                 6.00    15.99900     O ( 1.00)

     No symmetry found



   Cartesian axes

     site n.     atom                  positions (alat units)
         1        O      tau(   1) = (   0.1242374   0.1493704   0.0009745  )
         2        H      tau(   2) = (   0.1887788   0.1428273  -0.0005135  )
         3        H      tau(   3) = (   0.1091320   0.0878719  -0.0128930  )

     number of k points=     1
                       cart. coord. in units 2pi/alat
        k(    1) = (   0.0000000   0.0000000   0.0000000), wk =   2.0000000

     Dense  grid:   241925 G-vectors     FFT dimensions: ( 100, 100, 100)

     Estimated max dynamical RAM per process >     205.72 MB

     Initial potential from superposition of free atoms

     starting charge       7.9948, renormalised to       8.0000

     negative rho (up, down):  4.493E-01 0.000E+00
     Starting wfcs are random

     total cpu time spent up to now is        1.7 secs

     Self-consistent Calculation

     iteration #  1     ecut=    25.00 Ry     beta= 0.70
     Davidson diagonalization with overlap
     ethr =  1.00E-02,  avg # of iterations = 10.0

     negative rho (up, down):  1.286E-01 0.000E+00

     total cpu time spent up to now is        3.4 secs

     total energy              =     -33.10959236 Ry
     estimated scf accuracy    <       0.18058856 Ry

     iteration #  2     ecut=    25.00 Ry     beta= 0.70
     Davidson diagonalization with overlap
     ethr =  2.26E-03,  avg # of iterations =  7.0

     negative rho (up, down):  4.014E-02 0.000E+00

     total cpu time spent up to now is        4.3 secs

     total energy              =     -33.12070669 Ry
     estimated scf accuracy    <       0.02816429 Ry

     iteration #  3     ecut=    25.00 Ry     beta= 0.70
     Davidson diagonalization with overlap
     ethr =  3.52E-04,  avg # of iterations = 11.0

     negative rho (up, down):  5.804E-03 0.000E+00

     total cpu time spent up to now is        5.3 secs

     total energy              =     -33.12630043 Ry
     estimated scf accuracy    <       0.00698125 Ry

     iteration #  4     ecut=    25.00 Ry     beta= 0.70
     Davidson diagonalization with overlap
     ethr =  8.73E-05,  avg # of iterations =  6.0

     negative rho (up, down):  5.406E-04 0.000E+00

     total cpu time spent up to now is        6.0 secs

     total energy              =     -33.12723775 Ry
     estimated scf accuracy    <       0.00008294 Ry

     iteration #  5     ecut=    25.00 Ry     beta= 0.70
     Davidson diagonalization with overlap
     c_bands:  3 eigenvalues not converged
     ethr =  1.04E-06,  avg # of iterations = 20.0

     negative rho (up, down):  8.931E-05 0.000E+00

     total cpu time spent up to now is        7.9 secs

     total energy              =     -33.12732230 Ry
     estimated scf accuracy    <       0.00004899 Ry

     iteration #  6     ecut=    25.00 Ry     beta= 0.70
     Davidson diagonalization with overlap
     c_bands:  3 eigenvalues not converged
     ethr =  6.12E-07,  avg # of iterations = 20.0

     negative rho (up, down):  5.539E-07 0.000E+00

     total cpu time spent up to now is        9.3 secs

     total energy              =     -33.12731858 Ry
     estimated scf accuracy    <       0.00001696 Ry

     iteration #  7     ecut=    25.00 Ry     beta= 0.70
     Davidson diagonalization with overlap
     c_bands:  3 eigenvalues not converged
     ethr =  2.12E-07,  avg # of iterations = 20.0

     total cpu time spent up to now is       10.8 secs

     End of self-consistent calculation

          k = 0.0000 0.0000 0.0000 ( 30135 PWs)   bands (ev):

   -26.8317 -12.1693  -9.9085  -6.9540  -1.2535  -0.0539   0.2327   0.3728
     0.3806   0.4374

     highest occupied, lowest unoccupied level (ev):    -6.9540   -1.2535

!    total energy              =     -33.12732140 Ry
     estimated scf accuracy    <       0.00000014 Ry

     The total energy is the sum of the following terms:
     one-electron contribution =     -66.09471189 Ry
     hartree contribution      =      34.12024281 Ry
     xc contribution           =      -7.98959851 Ry
     ewald contribution        =       6.83674619 Ry

     charge density inside the Wigner-Seitz cell:    8.00000000

     reference position (x0):         3.99075622    4.31047608   -0.02891513 bohr

     Dipole moments (with respect to x0):
     Elect   0.3685  -0.5078  -0.1144 au (Ha),   0.9365  -1.2907  -0.2909 Debye
     Ionic  -0.0000   0.0000   0.0000 au (Ha),  -0.0000   0.0000   0.0000 Debye
     Total   0.3685  -0.5078  -0.1144 au (Ha),   0.9365  -1.2907  -0.2909 Debye

     Electrons quadrupole moment        -22.77694341 a.u. (Ha)
          Ions quadrupole moment          7.02223687 a.u. (Ha)
         Total quadrupole moment        -15.75470654 a.u. (Ha)

     *********    MAKOV-PAYNE CORRECTION    *********

     Makov-Payne correction with Madelung constant =   2.8373

     Makov-Payne correction     0.00000000 Ry =  0.000 eV (1st order, 1/a0)
                                0.00005946 Ry =  0.001 eV (2nd order, 1/a0^3)
                                0.00005946 Ry =  0.001 eV (total)

!    Total+Makov-Payne energy  =     -33.12726193 Ry
     Corrected vacuum level    =       0.03213528 eV

     convergence has been achieved in   7 iterations

     Writing all to output data dir ./ediff_file/water.save/ :
     XML data file, charge density, pseudopotentials, collected wavefunctions

     init_run     :      1.20s CPU      1.71s WALL (       1 calls)
     electrons    :      8.94s CPU      9.13s WALL (       1 calls)

     Called by init_run:
     wfcinit      :      0.41s CPU      0.47s WALL (       1 calls)
     potinit      :      0.25s CPU      0.52s WALL (       1 calls)
     hinit0       :      0.50s CPU      0.64s WALL (       1 calls)

     Called by electrons:
     c_bands      :      6.84s CPU      6.86s WALL (       7 calls)
     sum_band     :      0.48s CPU      0.48s WALL (       7 calls)
     v_of_rho     :      1.50s CPU      1.90s WALL (       8 calls)
     mix_rho      :      0.23s CPU      0.23s WALL (       7 calls)

     Called by c_bands:
     init_us_2    :      0.09s CPU      0.06s WALL (      15 calls)
     regterg      :      6.78s CPU      6.81s WALL (       7 calls)

     Called by *egterg:
     rdiaghg      :      0.00s CPU      0.01s WALL (     101 calls)
     h_psi        :      5.12s CPU      5.21s WALL (     102 calls)
     g_psi        :      0.02s CPU      0.03s WALL (      94 calls)

     Called by h_psi:
     h_psi:calbec :      0.31s CPU      0.36s WALL (     102 calls)
     vloc_psi     :      4.58s CPU      4.63s WALL (     102 calls)
     add_vuspsi   :      0.19s CPU      0.20s WALL (     102 calls)

     General routines
     calbec       :      0.31s CPU      0.36s WALL (     102 calls)
     fft          :      1.12s CPU      1.11s WALL (      63 calls)
     ffts         :      0.06s CPU      0.07s WALL (       7 calls)
     fftw         :      3.88s CPU      4.05s WALL (     593 calls)

     Parallel routines

     PWSCF        :     10.16s CPU     10.88s WALL


   This run was terminated on:  11:22:47   6Dec2024            

=------------------------------------------------------------------------------=
   JOB DONE.
=------------------------------------------------------------------------------=
