
     Program PWSCF v.7.4 starts on  6Dec2024 at 12:21:11 

     This program is part of the open-source Quantum ESPRESSO suite
     for quantum simulation of materials; please cite
         "P. Giannozzi et al., J. Phys.:Condens. Matter 21 395502 (2009);
         "P. Giannozzi et al., J. Phys.:Condens. Matter 29 465901 (2017);
         "P. Giannozzi et al., J. Chem. Phys. 152 154105 (2020);
          URL http://www.quantum-espresso.org", 
     in publications or presentations arising from this work. More details at
     http://www.quantum-espresso.org/quote

     Parallel version (MPI), running on     1 processors

     MPI processes distributed on     1 nodes
     8769 MiB available memory on the printing compute node when the environment starts

     Waiting for input...
     Reading input from standard input

     Current dimensions of program PWSCF are:
     Max number of different atomic species (ntypx) = 10
     Max number of k-points (npk) =  40000
     Max angular momentum in pseudopotentials (lmaxx) =  4

     IMPORTANT: XC functional enforced from input :
     Exchange-correlation= PBE0
                           (   6   4   8   4   0   0   0)
     EXX-fraction              =        0.25
     Any further DFT definition will be discarded
     Please, verify this is what you really want


     gamma-point specific algorithms are used

     Subspace diagonalization in iterative solution of the eigenvalue problem:
     a serial algorithm will be used

     EXX: q-point mesh:     1    1    1
     EXX: grid of k+q points same as grid of k-points

     G-vector sticks info
     --------------------
     sticks:   dense  smooth     PW     G-vecs:    dense   smooth      PW
     Sum       11449   11449   2869               922329   922329  115313

     Using Slab Decomposition



     bravais-lattice index     =            1
     lattice parameter (alat)  =      30.0000  a.u.
     unit-cell volume          =   27000.0000 (a.u.)^3
     number of atoms/cell      =            3
     number of atomic types    =            2
     number of electrons       =         8.00
     number of Kohn-Sham states=           10
     kinetic-energy cutoff     =      40.0000  Ry
     charge density cutoff     =     160.0000  Ry
     cutoff for Fock operator  =     160.0000  Ry
     scf convergence threshold =      1.0E-06
     mixing beta               =       0.7000
     number of iterations used =            8  plain     mixing
     Exchange-correlation= PBE0
                           (   6   4   8   4   0   0   0)
     EXX-fraction              =        0.25

     celldm(1)=  30.000000  celldm(2)=   0.000000  celldm(3)=   0.000000
     celldm(4)=   0.000000  celldm(5)=   0.000000  celldm(6)=   0.000000

     crystal axes: (cart. coord. in units of alat)
               a(1) = (   1.000000   0.000000   0.000000 )  
               a(2) = (   0.000000   1.000000   0.000000 )  
               a(3) = (   0.000000   0.000000   1.000000 )  

     reciprocal axes: (cart. coord. in units 2 pi/alat)
               b(1) = (  1.000000  0.000000  0.000000 )  
               b(2) = (  0.000000  1.000000  0.000000 )  
               b(3) = (  0.000000  0.000000  1.000000 )  


     PseudoPot. # 1 for H  read from file:
     /home/paolo/water_2/pp/H_ONCV_PBE-1.2.upf
     MD5 check sum: bf21e08b90ac4ce7d0149ac4e8138190
     Pseudo is Norm-conserving, Zval =  1.0
     Generated using ONCVPSP code by D. R. Hamann
     Using radial grid of  602 points,  2 beta functions with: 
                l(1) =   0
                l(2) =   0

     PseudoPot. # 2 for O  read from file:
     /home/paolo/water_2/pp/O_ONCV_PBE-1.2.upf
     MD5 check sum: e36c48deb68f4e355fffe4602be2c42c
     Pseudo is Norm-conserving, Zval =  6.0
     Generated using ONCVPSP code by D. R. Hamann
     Using radial grid of  602 points,  4 beta functions with: 
                l(1) =   0
                l(2) =   0
                l(3) =   1
                l(4) =   1

     atomic species   valence    mass     pseudopotential
     H                 1.00     1.00794     H ( 1.00)
     O                 6.00    15.99900     O ( 1.00)

     No symmetry found



   Cartesian axes

     site n.     atom                  positions (alat units)
         1        O      tau(   1) = (   0.1267221   0.1523579   0.0009940  )
         2        H      tau(   2) = (   0.1925544   0.1456839  -0.0005238  )
         3        H      tau(   3) = (   0.1113146   0.0896293  -0.0131509  )

     number of k points=     1
                       cart. coord. in units 2pi/alat
        k(    1) = (   0.0000000   0.0000000   0.0000000), wk =   2.0000000

     Dense  grid:   461165 G-vectors     FFT dimensions: ( 125, 125, 125)

     Estimated max dynamical RAM per process >     657.34 MB
     EXX: ACE will be initialized later

     Initial potential from superposition of free atoms

     starting charge       7.9948, renormalised to       8.0000

     negative rho (up, down):  4.255E-02 0.000E+00
     Starting wfcs are random

     total cpu time spent up to now is        2.7 secs

     Self-consistent Calculation

     iteration #  1     ecut=    40.00 Ry     beta= 0.70
     Davidson diagonalization with overlap
     ethr =  1.00E-02,  avg # of iterations = 11.0

     negative rho (up, down):  1.204E-02 0.000E+00

     total cpu time spent up to now is        6.4 secs

     total energy              =     -33.96511683 Ry
     estimated scf accuracy    <       0.22369770 Ry

     iteration #  2     ecut=    40.00 Ry     beta= 0.70
     Davidson diagonalization with overlap
     ethr =  2.80E-03,  avg # of iterations =  3.0

     negative rho (up, down):  6.795E-03 0.000E+00

     total cpu time spent up to now is        8.2 secs

     total energy              =     -34.00413224 Ry
     estimated scf accuracy    <       0.13053414 Ry

     iteration #  3     ecut=    40.00 Ry     beta= 0.70
     Davidson diagonalization with overlap
     ethr =  1.63E-03,  avg # of iterations = 10.0

     negative rho (up, down):  7.760E-05 0.000E+00

     total cpu time spent up to now is       10.3 secs

     total energy              =     -34.03099646 Ry
     estimated scf accuracy    <       0.00355810 Ry

     iteration #  4     ecut=    40.00 Ry     beta= 0.70
     Davidson diagonalization with overlap
     c_bands:  1 eigenvalues not converged
     ethr =  4.45E-05,  avg # of iterations = 20.0

     negative rho (up, down):  8.514E-05 0.000E+00

     total cpu time spent up to now is       14.2 secs

     total energy              =     -34.03141302 Ry
     estimated scf accuracy    <       0.00020163 Ry

     iteration #  5     ecut=    40.00 Ry     beta= 0.70
     Davidson diagonalization with overlap
     ethr =  2.52E-06,  avg # of iterations = 15.0

     negative rho (up, down):  1.897E-05 0.000E+00

     total cpu time spent up to now is       16.8 secs

     total energy              =     -34.03143099 Ry
     estimated scf accuracy    <       0.00002394 Ry

     iteration #  6     ecut=    40.00 Ry     beta= 0.70
     Davidson diagonalization with overlap
     ethr =  2.99E-07,  avg # of iterations = 19.0

     total cpu time spent up to now is       19.9 secs

     End of self-consistent calculation

          k = 0.0000 0.0000 0.0000 ( 57657 PWs)   bands (ev):

   -25.0240 -12.1377  -9.6193  -7.0606  -1.2391  -0.0012   0.2242   0.4354
     0.4562   0.5108

     highest occupied, lowest unoccupied level (ev):    -7.0606   -1.2391

!    total energy              =     -34.03143573 Ry
     estimated scf accuracy    <       0.00000023 Ry

     charge density inside the Wigner-Seitz cell:    8.00000000

     reference position (x0):         3.99075622    4.31047608   -0.02891513 bohr

     Dipole moments (with respect to x0):
     Elect   0.4295  -0.5916  -0.1336 au (Ha),   1.0917  -1.5036  -0.3396 Debye
     Ionic  -0.0000   0.0000   0.0000 au (Ha),  -0.0000   0.0000   0.0000 Debye
     Total   0.4295  -0.5916  -0.1336 au (Ha),   1.0917  -1.5036  -0.3396 Debye

     Electrons quadrupole moment        -21.57471256 a.u. (Ha)
          Ions quadrupole moment          7.02223687 a.u. (Ha)
         Total quadrupole moment        -14.55247570 a.u. (Ha)

     *********    MAKOV-PAYNE CORRECTION    *********

     Makov-Payne correction with Madelung constant =   2.8373

     Makov-Payne correction     0.00000000 Ry =  0.000 eV (1st order, 1/a0)
                                0.00008568 Ry =  0.001 eV (2nd order, 1/a0^3)
                                0.00008568 Ry =  0.001 eV (total)

!    Total+Makov-Payne energy  =     -34.03135004 Ry
     Corrected vacuum level    =       0.03077040 eV

     convergence has been achieved in   6 iterations

     Using ACE for calculation of exact exchange

     EXX grid:   461165 G-vectors     FFT dimensions: ( 125, 125, 125)
     ACE projected onto    10 (nbndproj) and applied to    10 (nbnd) bands

     EXX: now go back to refine exchange calculation

     total cpu time spent up to now is       23.0 secs

     Self-consistent Calculation

     iteration #  1     ecut=    40.00 Ry     beta= 0.70
     Davidson diagonalization with overlap
     ethr =  2.99E-07,  avg # of iterations = 30.0

     total cpu time spent up to now is       30.4 secs

     total energy              =     -34.02017240 Ry
     estimated scf accuracy    <       0.00054993 Ry

     iteration #  2     ecut=    40.00 Ry     beta= 0.70
     Davidson diagonalization with overlap
     ethr =  6.87E-06,  avg # of iterations =  2.0

     total cpu time spent up to now is       32.0 secs

     total energy              =     -34.02027908 Ry
     estimated scf accuracy    <       0.00024989 Ry

     iteration #  3     ecut=    40.00 Ry     beta= 0.70
     Davidson diagonalization with overlap
     ethr =  3.12E-06,  avg # of iterations =  2.0

     total cpu time spent up to now is       33.5 secs

     total energy              =     -34.02033002 Ry
     estimated scf accuracy    <       0.00000438 Ry

     iteration #  4     ecut=    40.00 Ry     beta= 0.70
     Davidson diagonalization with overlap
     c_bands:  2 eigenvalues not converged
     ethr =  5.47E-08,  avg # of iterations = 20.0

     total cpu time spent up to now is       37.8 secs

     End of self-consistent calculation

          k = 0.0000 0.0000 0.0000 ( 57657 PWs)   bands (ev):

   -28.1906 -13.8282 -11.3672  -8.8543  -0.6231   0.0637   0.4131   0.4934
     0.5112   0.5348

     highest occupied, lowest unoccupied level (ev):    -8.8543   -0.6231

!    total energy              =     -34.02033015 Ry
     estimated scf accuracy    <       0.00000054 Ry

     charge density inside the Wigner-Seitz cell:    8.00000000

     reference position (x0):         3.99075622    4.31047608   -0.02891513 bohr

     Dipole moments (with respect to x0):
     Elect   0.4460  -0.6142  -0.1386 au (Ha),   1.1337  -1.5610  -0.3523 Debye
     Ionic  -0.0000   0.0000   0.0000 au (Ha),  -0.0000   0.0000   0.0000 Debye
     Total   0.4460  -0.6142  -0.1386 au (Ha),   1.1337  -1.5610  -0.3523 Debye

     Electrons quadrupole moment        -21.29644655 a.u. (Ha)
          Ions quadrupole moment          7.02223687 a.u. (Ha)
         Total quadrupole moment        -14.27420969 a.u. (Ha)

     *********    MAKOV-PAYNE CORRECTION    *********

     Makov-Payne correction with Madelung constant =   2.8373

     Makov-Payne correction     0.00000000 Ry =  0.000 eV (1st order, 1/a0)
                                0.00009236 Ry =  0.001 eV (2nd order, 1/a0^3)
                                0.00009236 Ry =  0.001 eV (total)

!    Total+Makov-Payne energy  =     -34.02023779 Ry
     Corrected vacuum level    =       0.03017933 eV

     convergence has been achieved in   4 iterations

     Using ACE for calculation of exact exchange
     ACE projected onto    10 (nbndproj) and applied to    10 (nbnd) bands

     total energy              =     -34.02045815 Ry
     Harris-Foulkes estimate   =     -34.02045859 Ry
     est. exchange err (dexx)  =       0.00012800 Ry
     - averaged Fock potential =       3.81318103 Ry
     + Fock energy (ACE)       =      -1.90949988 Ry

     EXX: now go back to refine exchange calculation

     total cpu time spent up to now is       40.3 secs

     Self-consistent Calculation

     iteration #  1     ecut=    40.00 Ry     beta= 0.70
     Davidson diagonalization with overlap
     c_bands:  3 eigenvalues not converged
     ethr =  5.47E-08,  avg # of iterations = 20.0

     total cpu time spent up to now is       43.6 secs

     total energy              =     -34.02046952 Ry
     estimated scf accuracy    <       0.00000345 Ry

     iteration #  2     ecut=    40.00 Ry     beta= 0.70
     Davidson diagonalization with overlap
     c_bands:  1 eigenvalues not converged
     ethr =  4.31E-08,  avg # of iterations = 20.0

     total cpu time spent up to now is       46.4 secs

     total energy              =     -34.02046991 Ry
     estimated scf accuracy    <       0.00000114 Ry

     iteration #  3     ecut=    40.00 Ry     beta= 0.70
     Davidson diagonalization with overlap
     c_bands:  2 eigenvalues not converged
     ethr =  1.43E-08,  avg # of iterations = 20.0

     total cpu time spent up to now is       49.3 secs

     End of self-consistent calculation

          k = 0.0000 0.0000 0.0000 ( 57657 PWs)   bands (ev):

   -28.1780 -13.8164 -11.3602  -8.8478  -0.6152   0.0646   0.4143   0.4941
     0.5117   0.5347

     highest occupied, lowest unoccupied level (ev):    -8.8478   -0.6152

!    total energy              =     -34.02047016 Ry
     estimated scf accuracy    <       0.00000008 Ry

     charge density inside the Wigner-Seitz cell:    8.00000000

     reference position (x0):         3.99075622    4.31047608   -0.02891513 bohr

     Dipole moments (with respect to x0):
     Elect   0.4476  -0.6164  -0.1391 au (Ha),   1.1377  -1.5669  -0.3536 Debye
     Ionic  -0.0000   0.0000   0.0000 au (Ha),  -0.0000   0.0000   0.0000 Debye
     Total   0.4476  -0.6164  -0.1391 au (Ha),   1.1377  -1.5669  -0.3536 Debye

     Electrons quadrupole moment        -21.26771698 a.u. (Ha)
          Ions quadrupole moment          7.02223687 a.u. (Ha)
         Total quadrupole moment        -14.24548011 a.u. (Ha)

     *********    MAKOV-PAYNE CORRECTION    *********

     Makov-Payne correction with Madelung constant =   2.8373

     Makov-Payne correction     0.00000000 Ry =  0.000 eV (1st order, 1/a0)
                                0.00009304 Ry =  0.001 eV (2nd order, 1/a0^3)
                                0.00009304 Ry =  0.001 eV (total)

!    Total+Makov-Payne energy  =     -34.02037712 Ry
     Corrected vacuum level    =       0.03011841 eV

     convergence has been achieved in   3 iterations

     Using ACE for calculation of exact exchange
     ACE projected onto    10 (nbndproj) and applied to    10 (nbnd) bands

     total energy              =     -34.02047152 Ry
     Harris-Foulkes estimate   =     -34.02047158 Ry
     est. exchange err (dexx)  =       0.00000136 Ry
     - averaged Fock potential =       3.81953939 Ry
     + Fock energy (ACE)       =      -1.91004087 Ry

     EXX: now go back to refine exchange calculation

     total cpu time spent up to now is       51.8 secs

     Self-consistent Calculation

     iteration #  1     ecut=    40.00 Ry     beta= 0.70
     Davidson diagonalization with overlap
     c_bands:  1 eigenvalues not converged
     ethr =  1.43E-08,  avg # of iterations = 20.0

     Threshold (ethr) on eigenvalues was too large:
     Diagonalizing with lowered threshold

     Davidson diagonalization with overlap
     c_bands:  2 eigenvalues not converged
     ethr =  5.70E-10,  avg # of iterations = 20.0

     total cpu time spent up to now is       57.5 secs

     End of self-consistent calculation

          k = 0.0000 0.0000 0.0000 ( 57657 PWs)   bands (ev):

   -28.1738 -13.8130 -11.3577  -8.8450  -0.6139   0.0648   0.4145   0.4942
     0.5118   0.5346

     highest occupied, lowest unoccupied level (ev):    -8.8450   -0.6139

!    total energy              =     -34.02047165 Ry
     estimated scf accuracy    <       0.00000005 Ry

     charge density inside the Wigner-Seitz cell:    8.00000000

     reference position (x0):         3.99075622    4.31047608   -0.02891513 bohr

     Dipole moments (with respect to x0):
     Elect   0.4477  -0.6165  -0.1391 au (Ha),   1.1378  -1.5671  -0.3536 Debye
     Ionic  -0.0000   0.0000   0.0000 au (Ha),  -0.0000   0.0000   0.0000 Debye
     Total   0.4477  -0.6165  -0.1391 au (Ha),   1.1378  -1.5671  -0.3536 Debye

     Electrons quadrupole moment        -21.26656032 a.u. (Ha)
          Ions quadrupole moment          7.02223687 a.u. (Ha)
         Total quadrupole moment        -14.24432345 a.u. (Ha)

     *********    MAKOV-PAYNE CORRECTION    *********

     Makov-Payne correction with Madelung constant =   2.8373

     Makov-Payne correction     0.00000000 Ry =  0.000 eV (1st order, 1/a0)
                                0.00009306 Ry =  0.001 eV (2nd order, 1/a0^3)
                                0.00009306 Ry =  0.001 eV (total)

!    Total+Makov-Payne energy  =     -34.02037858 Ry
     Corrected vacuum level    =       0.03011593 eV

     convergence has been achieved in   1 iterations

     Using ACE for calculation of exact exchange
     ACE projected onto    10 (nbndproj) and applied to    10 (nbnd) bands

!!   total energy              =     -34.02047167 Ry
     Harris-Foulkes estimate   =     -34.02047170 Ry
     est. exchange err (dexx)  =       0.00000002 Ry
     - averaged Fock potential =       3.82005589 Ry
     + Fock energy (ACE)       =      -1.91001505 Ry

     charge density inside the Wigner-Seitz cell:    8.00000000

     reference position (x0):         3.99075622    4.31047608   -0.02891513 bohr

     Dipole moments (with respect to x0):
     Elect   0.4477  -0.6165  -0.1391 au (Ha),   1.1378  -1.5671  -0.3536 Debye
     Ionic  -0.0000   0.0000   0.0000 au (Ha),  -0.0000   0.0000   0.0000 Debye
     Total   0.4477  -0.6165  -0.1391 au (Ha),   1.1378  -1.5671  -0.3536 Debye

     Electrons quadrupole moment        -21.26656032 a.u. (Ha)
          Ions quadrupole moment          7.02223687 a.u. (Ha)
         Total quadrupole moment        -14.24432345 a.u. (Ha)

     *********    MAKOV-PAYNE CORRECTION    *********

     Makov-Payne correction with Madelung constant =   2.8373

     Makov-Payne correction     0.00000000 Ry =  0.000 eV (1st order, 1/a0)
                                0.00009306 Ry =  0.001 eV (2nd order, 1/a0^3)
                                0.00009306 Ry =  0.001 eV (total)

!    Total+Makov-Payne energy  =     -34.02037861 Ry
     Corrected vacuum level    =       0.03011593 eV

     EXX self-consistency reached

     Writing all to output data dir ./water_pbe0/water_pbe0.save/ :
     XML data file, charge density, pseudopotentials, collected wavefunctions

     init_run     :      2.06s CPU      2.65s WALL (       1 calls)
     electrons    :     46.81s CPU     47.36s WALL (       4 calls)

     Called by init_run:
     aceinit0     :      0.00s CPU      0.00s WALL (       1 calls)
     wfcinit      :      0.59s CPU      0.67s WALL (       1 calls)
     potinit      :      0.67s CPU      1.01s WALL (       1 calls)
     hinit0       :      0.69s CPU      0.81s WALL (       1 calls)

     Called by electrons:
     c_bands      :     37.22s CPU     37.34s WALL (      15 calls)
     sum_band     :      2.89s CPU      2.90s WALL (      15 calls)
     v_of_rho     :      6.36s CPU      7.08s WALL (      16 calls)
     mix_rho      :      0.64s CPU      0.63s WALL (      15 calls)

     Called by c_bands:
     init_us_2    :      0.23s CPU      0.24s WALL (      31 calls)
     regterg      :     37.05s CPU     37.15s WALL (      16 calls)

     Called by *egterg:
     rdiaghg      :      0.02s CPU      0.02s WALL (     243 calls)
     h_psi        :     29.27s CPU     29.51s WALL (     249 calls)
     g_psi        :      0.22s CPU      0.14s WALL (     232 calls)

     Called by h_psi:
     h_psi:calbec :      1.45s CPU      1.40s WALL (     249 calls)
     vloc_psi     :     25.38s CPU     25.71s WALL (     249 calls)
     add_vuspsi   :      0.89s CPU      0.86s WALL (     249 calls)

     General routines
     calbec       :      2.47s CPU      2.35s WALL (     431 calls)
     fft          :      4.03s CPU      4.05s WALL (     123 calls)
     ffts         :      0.44s CPU      0.44s WALL (      15 calls)
     fftw         :     23.56s CPU     23.83s WALL (    1181 calls)
     fftc         :      4.48s CPU      4.49s WALL (     160 calls)
     fftcw        :      1.59s CPU      1.61s WALL (      80 calls)

     Parallel routines

     EXX routines
     exx_grid     :      0.00s CPU      0.00s WALL (       1 calls)
     exxinit      :      0.52s CPU      0.67s WALL (       4 calls)
     vexx         :      7.53s CPU      8.56s WALL (       4 calls)
     matcalc      :      1.02s CPU      0.95s WALL (     182 calls)
     aceupdate    :      0.00s CPU      0.03s WALL (       4 calls)
     vexxace      :      1.69s CPU      1.65s WALL (     171 calls)
     aceinit      :      7.59s CPU      8.63s WALL (       4 calls)

     PWSCF        :     57.72s CPU   1m 0.08s WALL


   This run was terminated on:  12:22:11   6Dec2024            

=------------------------------------------------------------------------------=
   JOB DONE.
=------------------------------------------------------------------------------=
