
     Program PWSCF v.7.4 starts on  6Dec2024 at 10:19:34 

     This program is part of the open-source Quantum ESPRESSO suite
     for quantum simulation of materials; please cite
         "P. Giannozzi et al., J. Phys.:Condens. Matter 21 395502 (2009);
         "P. Giannozzi et al., J. Phys.:Condens. Matter 29 465901 (2017);
         "P. Giannozzi et al., J. Chem. Phys. 152 154105 (2020);
          URL http://www.quantum-espresso.org", 
     in publications or presentations arising from this work. More details at
     http://www.quantum-espresso.org/quote

     Parallel version (MPI), running on     1 processors

     MPI processes distributed on     1 nodes
     9702 MiB available memory on the printing compute node when the environment starts

     Waiting for input...
     Reading input from standard input

     Current dimensions of program PWSCF are:
     Max number of different atomic species (ntypx) = 10
     Max number of k-points (npk) =  40000
     Max angular momentum in pseudopotentials (lmaxx) =  4

     gamma-point specific algorithms are used

     Subspace diagonalization in iterative solution of the eigenvalue problem:
     a serial algorithm will be used


     G-vector sticks info
     --------------------
     sticks:   dense  smooth     PW     G-vecs:    dense   smooth      PW
     Sum       12745   12745   3181              1080751  1080751  135043

     Using Slab Decomposition



     bravais-lattice index     =            1
     lattice parameter (alat)  =      40.0000  a.u.
     unit-cell volume          =   64000.0000 (a.u.)^3
     number of atoms/cell      =            3
     number of atomic types    =            2
     number of electrons       =         8.00
     number of Kohn-Sham states=           10
     kinetic-energy cutoff     =      25.0000  Ry
     charge density cutoff     =     100.0000  Ry
     scf convergence threshold =      1.0E-06
     mixing beta               =       0.7000
     number of iterations used =            8  plain     mixing
     Exchange-correlation= PBE
                           (   1   4   3   4   0   0   0)

     celldm(1)=  40.000000  celldm(2)=   0.000000  celldm(3)=   0.000000
     celldm(4)=   0.000000  celldm(5)=   0.000000  celldm(6)=   0.000000

     crystal axes: (cart. coord. in units of alat)
               a(1) = (   1.000000   0.000000   0.000000 )  
               a(2) = (   0.000000   1.000000   0.000000 )  
               a(3) = (   0.000000   0.000000   1.000000 )  

     reciprocal axes: (cart. coord. in units 2 pi/alat)
               b(1) = (  1.000000  0.000000  0.000000 )  
               b(2) = (  0.000000  1.000000  0.000000 )  
               b(3) = (  0.000000  0.000000  1.000000 )  


     PseudoPot. # 1 for H  read from file:
     /home/paolo/water_2/pp/H_ONCV_PBE-1.2.upf
     MD5 check sum: bf21e08b90ac4ce7d0149ac4e8138190
     Pseudo is Norm-conserving, Zval =  1.0
     Generated using ONCVPSP code by D. R. Hamann
     Using radial grid of  602 points,  2 beta functions with: 
                l(1) =   0
                l(2) =   0

     PseudoPot. # 2 for O  read from file:
     /home/paolo/water_2/pp/O_ONCV_PBE-1.2.upf
     MD5 check sum: e36c48deb68f4e355fffe4602be2c42c
     Pseudo is Norm-conserving, Zval =  6.0
     Generated using ONCVPSP code by D. R. Hamann
     Using radial grid of  602 points,  4 beta functions with: 
                l(1) =   0
                l(2) =   0
                l(3) =   1
                l(4) =   1

     atomic species   valence    mass     pseudopotential
     H                 1.00     1.00794     H ( 1.00)
     O                 6.00    15.99900     O ( 1.00)

     No symmetry found



   Cartesian axes

     site n.     atom                  positions (alat units)
         1        O      tau(   1) = (   0.0950416   0.1142684   0.0007455  )
         2        H      tau(   2) = (   0.1444158   0.1092629  -0.0003928  )
         3        H      tau(   3) = (   0.0834860   0.0672220  -0.0098632  )

     number of k points=     1
                       cart. coord. in units 2pi/alat
        k(    1) = (   0.0000000   0.0000000   0.0000000), wk =   2.0000000

     Dense  grid:   540376 G-vectors     FFT dimensions: ( 128, 128, 128)

     Estimated max dynamical RAM per process >     449.55 MB

     Initial potential from superposition of free atoms

     starting charge       7.9948, renormalised to       8.0000

     negative rho (up, down):  6.343E-01 0.000E+00
     Starting wfcs are random

     total cpu time spent up to now is        4.1 secs

     Self-consistent Calculation

     iteration #  1     ecut=    25.00 Ry     beta= 0.70
     Davidson diagonalization with overlap
     ethr =  1.00E-02,  avg # of iterations = 13.0

     negative rho (up, down):  1.841E-01 0.000E+00

     total cpu time spent up to now is        9.2 secs

     total energy              =     -33.11504523 Ry
     estimated scf accuracy    <       0.17893894 Ry

     iteration #  2     ecut=    25.00 Ry     beta= 0.70
     Davidson diagonalization with overlap
     ethr =  2.24E-03,  avg # of iterations =  5.0

     negative rho (up, down):  5.088E-02 0.000E+00

     total cpu time spent up to now is       11.7 secs

     total energy              =     -33.12749334 Ry
     estimated scf accuracy    <       0.02286493 Ry

     iteration #  3     ecut=    25.00 Ry     beta= 0.70
     Davidson diagonalization with overlap
     ethr =  2.86E-04,  avg # of iterations = 10.0

     negative rho (up, down):  8.970E-03 0.000E+00

     total cpu time spent up to now is       15.8 secs

     total energy              =     -33.13172692 Ry
     estimated scf accuracy    <       0.00545986 Ry

     iteration #  4     ecut=    25.00 Ry     beta= 0.70
     Davidson diagonalization with overlap
     ethr =  6.82E-05,  avg # of iterations =  9.0

     negative rho (up, down):  8.935E-04 0.000E+00

     total cpu time spent up to now is       18.5 secs

     total energy              =     -33.13259593 Ry
     estimated scf accuracy    <       0.00002725 Ry

     iteration #  5     ecut=    25.00 Ry     beta= 0.70
     Davidson diagonalization with overlap
     c_bands:  2 eigenvalues not converged
     ethr =  3.41E-07,  avg # of iterations = 20.0

     negative rho (up, down):  3.968E-04 0.000E+00

     total cpu time spent up to now is       25.4 secs

     total energy              =     -33.13264046 Ry
     estimated scf accuracy    <       0.00003930 Ry

     iteration #  6     ecut=    25.00 Ry     beta= 0.70
     Davidson diagonalization with overlap
     c_bands:  2 eigenvalues not converged
     ethr =  3.41E-07,  avg # of iterations = 20.0

     negative rho (up, down):  9.919E-07 0.000E+00

     total cpu time spent up to now is       29.8 secs

     total energy              =     -33.13263708 Ry
     estimated scf accuracy    <       0.00001556 Ry

     iteration #  7     ecut=    25.00 Ry     beta= 0.70
     Davidson diagonalization with overlap
     c_bands:  3 eigenvalues not converged
     ethr =  1.95E-07,  avg # of iterations = 20.0

     total cpu time spent up to now is       35.1 secs

     End of self-consistent calculation

          k = 0.0000 0.0000 0.0000 ( 67522 PWs)   bands (ev):

   -26.8354 -12.1868  -9.9234  -6.9701  -1.2706  -0.0728   0.1326   0.2020
     0.2054   0.2353

     highest occupied, lowest unoccupied level (ev):    -6.9701   -1.2706

!    total energy              =     -33.13264046 Ry
     estimated scf accuracy    <       0.00000016 Ry

     The total energy is the sum of the following terms:
     one-electron contribution =     -68.87318647 Ry
     hartree contribution      =      35.50428999 Ry
     xc contribution           =      -7.99047345 Ry
     ewald contribution        =       8.22672946 Ry

     charge density inside the Wigner-Seitz cell:    8.00000000

     reference position (x0):         3.99075622    4.31047608   -0.02891513 bohr

     Dipole moments (with respect to x0):
     Elect   0.3684  -0.5069  -0.1144 au (Ha),   0.9363  -1.2885  -0.2907 Debye
     Ionic  -0.0000  -0.0000   0.0000 au (Ha),  -0.0000  -0.0000   0.0000 Debye
     Total   0.3684  -0.5069  -0.1144 au (Ha),   0.9363  -1.2885  -0.2907 Debye

     Electrons quadrupole moment        -22.89388085 a.u. (Ha)
          Ions quadrupole moment          7.02223687 a.u. (Ha)
         Total quadrupole moment        -15.87164399 a.u. (Ha)

     *********    MAKOV-PAYNE CORRECTION    *********

     Makov-Payne correction with Madelung constant =   2.8373

     Makov-Payne correction     0.00000000 Ry =  0.000 eV (1st order, 1/a0)
                                0.00002656 Ry =  0.000 eV (2nd order, 1/a0^3)
                                0.00002656 Ry =  0.000 eV (total)

!    Total+Makov-Payne energy  =     -33.13261391 Ry
     Corrected vacuum level    =       0.01447710 eV

     convergence has been achieved in   7 iterations

     Writing all to output data dir /home/paolo/water_2/vacuum_file/water.save/ :
     XML data file, charge density, pseudopotentials, collected wavefunctions

     init_run     :      3.42s CPU      4.11s WALL (       1 calls)
     electrons    :     29.09s CPU     31.05s WALL (       1 calls)

     Called by init_run:
     wfcinit      :      1.28s CPU      1.33s WALL (       1 calls)
     potinit      :      0.72s CPU      1.11s WALL (       1 calls)
     hinit0       :      1.28s CPU      1.48s WALL (       1 calls)

     Called by electrons:
     c_bands      :     24.14s CPU     24.14s WALL (       7 calls)
     sum_band     :      1.61s CPU      1.78s WALL (       7 calls)
     v_of_rho     :      3.33s CPU      5.25s WALL (       8 calls)
     mix_rho      :      0.44s CPU      0.62s WALL (       7 calls)

     Called by c_bands:
     init_us_2    :      0.14s CPU      0.15s WALL (      15 calls)
     regterg      :     24.05s CPU     24.04s WALL (       7 calls)

     Called by *egterg:
     rdiaghg      :      0.03s CPU      0.01s WALL (     104 calls)
     h_psi        :     20.09s CPU     20.22s WALL (     105 calls)
     g_psi        :      0.11s CPU      0.08s WALL (      97 calls)

     Called by h_psi:
     h_psi:calbec :      1.05s CPU      0.95s WALL (     105 calls)
     vloc_psi     :     18.50s CPU     18.66s WALL (     105 calls)
     add_vuspsi   :      0.47s CPU      0.55s WALL (     105 calls)

     General routines
     calbec       :      1.05s CPU      0.95s WALL (     105 calls)
     fft          :      2.27s CPU      2.39s WALL (      63 calls)
     ffts         :      0.16s CPU      0.14s WALL (       7 calls)
     fftw         :     17.23s CPU     17.57s WALL (     609 calls)

     Parallel routines

     PWSCF        :     32.56s CPU     35.22s WALL


   This run was terminated on:  10:20: 9   6Dec2024            

=------------------------------------------------------------------------------=
   JOB DONE.
=------------------------------------------------------------------------------=
