
     Program PWSCF v.7.4 starts on  6Dec2024 at 10:19:12 

     This program is part of the open-source Quantum ESPRESSO suite
     for quantum simulation of materials; please cite
         "P. Giannozzi et al., J. Phys.:Condens. Matter 21 395502 (2009);
         "P. Giannozzi et al., J. Phys.:Condens. Matter 29 465901 (2017);
         "P. Giannozzi et al., J. Chem. Phys. 152 154105 (2020);
          URL http://www.quantum-espresso.org", 
     in publications or presentations arising from this work. More details at
     http://www.quantum-espresso.org/quote

     Parallel version (MPI), running on     1 processors

     MPI processes distributed on     1 nodes
     9679 MiB available memory on the printing compute node when the environment starts

     Waiting for input...
     Reading input from standard input

     Current dimensions of program PWSCF are:
     Max number of different atomic species (ntypx) = 10
     Max number of k-points (npk) =  40000
     Max angular momentum in pseudopotentials (lmaxx) =  4

     gamma-point specific algorithms are used

     Subspace diagonalization in iterative solution of the eigenvalue problem:
     a serial algorithm will be used


     G-vector sticks info
     --------------------
     sticks:   dense  smooth     PW     G-vecs:    dense   smooth      PW
     Sum        9737    9737   2433               724295   724295   90447

     Using Slab Decomposition



     bravais-lattice index     =            1
     lattice parameter (alat)  =      35.0000  a.u.
     unit-cell volume          =   42875.0000 (a.u.)^3
     number of atoms/cell      =            3
     number of atomic types    =            2
     number of electrons       =         8.00
     number of Kohn-Sham states=           10
     kinetic-energy cutoff     =      25.0000  Ry
     charge density cutoff     =     100.0000  Ry
     scf convergence threshold =      1.0E-06
     mixing beta               =       0.7000
     number of iterations used =            8  plain     mixing
     Exchange-correlation= PBE
                           (   1   4   3   4   0   0   0)

     celldm(1)=  35.000000  celldm(2)=   0.000000  celldm(3)=   0.000000
     celldm(4)=   0.000000  celldm(5)=   0.000000  celldm(6)=   0.000000

     crystal axes: (cart. coord. in units of alat)
               a(1) = (   1.000000   0.000000   0.000000 )  
               a(2) = (   0.000000   1.000000   0.000000 )  
               a(3) = (   0.000000   0.000000   1.000000 )  

     reciprocal axes: (cart. coord. in units 2 pi/alat)
               b(1) = (  1.000000  0.000000  0.000000 )  
               b(2) = (  0.000000  1.000000  0.000000 )  
               b(3) = (  0.000000  0.000000  1.000000 )  


     PseudoPot. # 1 for H  read from file:
     /home/paolo/water_2/pp/H_ONCV_PBE-1.2.upf
     MD5 check sum: bf21e08b90ac4ce7d0149ac4e8138190
     Pseudo is Norm-conserving, Zval =  1.0
     Generated using ONCVPSP code by D. R. Hamann
     Using radial grid of  602 points,  2 beta functions with: 
                l(1) =   0
                l(2) =   0

     PseudoPot. # 2 for O  read from file:
     /home/paolo/water_2/pp/O_ONCV_PBE-1.2.upf
     MD5 check sum: e36c48deb68f4e355fffe4602be2c42c
     Pseudo is Norm-conserving, Zval =  6.0
     Generated using ONCVPSP code by D. R. Hamann
     Using radial grid of  602 points,  4 beta functions with: 
                l(1) =   0
                l(2) =   0
                l(3) =   1
                l(4) =   1

     atomic species   valence    mass     pseudopotential
     H                 1.00     1.00794     H ( 1.00)
     O                 6.00    15.99900     O ( 1.00)

     No symmetry found



   Cartesian axes

     site n.     atom                  positions (alat units)
         1        O      tau(   1) = (   0.1086190   0.1305924   0.0008520  )
         2        H      tau(   2) = (   0.1650466   0.1248719  -0.0004490  )
         3        H      tau(   3) = (   0.0954125   0.0768251  -0.0112722  )

     number of k points=     1
                       cart. coord. in units 2pi/alat
        k(    1) = (   0.0000000   0.0000000   0.0000000), wk =   2.0000000

     Dense  grid:   362148 G-vectors     FFT dimensions: ( 120, 120, 120)

     Estimated max dynamical RAM per process >     323.57 MB

     Initial potential from superposition of free atoms

     starting charge       7.9948, renormalised to       8.0000

     negative rho (up, down):  5.352E-01 0.000E+00
     Starting wfcs are random

     total cpu time spent up to now is        3.4 secs

     Self-consistent Calculation

     iteration #  1     ecut=    25.00 Ry     beta= 0.70
     Davidson diagonalization with overlap
     ethr =  1.00E-02,  avg # of iterations = 11.0

     negative rho (up, down):  1.550E-01 0.000E+00

     total cpu time spent up to now is        6.4 secs

     total energy              =     -33.11726055 Ry
     estimated scf accuracy    <       0.17897138 Ry

     iteration #  2     ecut=    25.00 Ry     beta= 0.70
     Davidson diagonalization with overlap
     ethr =  2.24E-03,  avg # of iterations =  4.0

     negative rho (up, down):  4.289E-02 0.000E+00

     total cpu time spent up to now is        7.8 secs

     total energy              =     -33.12726632 Ry
     estimated scf accuracy    <       0.02287838 Ry

     iteration #  3     ecut=    25.00 Ry     beta= 0.70
     Davidson diagonalization with overlap
     ethr =  2.86E-04,  avg # of iterations = 17.0

     negative rho (up, down):  7.532E-03 0.000E+00

     total cpu time spent up to now is       10.1 secs

     total energy              =     -33.13125972 Ry
     estimated scf accuracy    <       0.00632455 Ry

     iteration #  4     ecut=    25.00 Ry     beta= 0.70
     Davidson diagonalization with overlap
     c_bands:  1 eigenvalues not converged
     ethr =  7.91E-05,  avg # of iterations = 20.0

     negative rho (up, down):  8.735E-04 0.000E+00

     total cpu time spent up to now is       12.2 secs

     total energy              =     -33.13226464 Ry
     estimated scf accuracy    <       0.00002584 Ry

     iteration #  5     ecut=    25.00 Ry     beta= 0.70
     Davidson diagonalization with overlap
     c_bands:  4 eigenvalues not converged
     ethr =  3.23E-07,  avg # of iterations = 20.0

     negative rho (up, down):  6.608E-05 0.000E+00

     total cpu time spent up to now is       15.8 secs

     total energy              =     -33.13229006 Ry
     estimated scf accuracy    <       0.00001654 Ry

     iteration #  6     ecut=    25.00 Ry     beta= 0.70
     Davidson diagonalization with overlap
     c_bands:  3 eigenvalues not converged
     ethr =  2.07E-07,  avg # of iterations = 20.0

     total cpu time spent up to now is       18.7 secs

     total energy              =     -33.13229245 Ry
     estimated scf accuracy    <       0.00000129 Ry

     iteration #  7     ecut=    25.00 Ry     beta= 0.70
     Davidson diagonalization with overlap
     c_bands:  3 eigenvalues not converged
     ethr =  1.61E-08,  avg # of iterations = 20.0

     total cpu time spent up to now is       21.7 secs

     End of self-consistent calculation

          k = 0.0000 0.0000 0.0000 ( 45224 PWs)   bands (ev):

   -26.8297 -12.1799  -9.9171  -6.9640  -1.2631  -0.0691   0.1756   0.2751
     0.2805   0.3207

     highest occupied, lowest unoccupied level (ev):    -6.9640   -1.2631

!    total energy              =     -33.13229277 Ry
     estimated scf accuracy    <       0.00000002 Ry

     The total energy is the sum of the following terms:
     one-electron contribution =     -67.58403513 Ry
     hartree contribution      =      34.86232258 Ry
     xc contribution           =      -7.99060349 Ry
     ewald contribution        =       7.58002329 Ry

     charge density inside the Wigner-Seitz cell:    8.00000000

     reference position (x0):         3.99075622    4.31047608   -0.02891513 bohr

     Dipole moments (with respect to x0):
     Elect   0.3686  -0.5074  -0.1144 au (Ha),   0.9369  -1.2896  -0.2908 Debye
     Ionic  -0.0000  -0.0000   0.0000 au (Ha),  -0.0000  -0.0000   0.0000 Debye
     Total   0.3686  -0.5074  -0.1144 au (Ha),   0.9369  -1.2896  -0.2908 Debye

     Electrons quadrupole moment        -22.82664154 a.u. (Ha)
          Ions quadrupole moment          7.02223687 a.u. (Ha)
         Total quadrupole moment        -15.80440467 a.u. (Ha)

     *********    MAKOV-PAYNE CORRECTION    *********

     Makov-Payne correction with Madelung constant =   2.8373

     Makov-Payne correction     0.00000000 Ry =  0.000 eV (1st order, 1/a0)
                                0.00003970 Ry =  0.001 eV (2nd order, 1/a0^3)
                                0.00003970 Ry =  0.001 eV (total)

!    Total+Makov-Payne energy  =     -33.13225306 Ry
     Corrected vacuum level    =       0.02144851 eV

     convergence has been achieved in   7 iterations

     Writing all to output data dir /home/paolo/water_2/vacuum_file/water.save/ :
     XML data file, charge density, pseudopotentials, collected wavefunctions

     init_run     :      2.66s CPU      3.37s WALL (       1 calls)
     electrons    :     18.05s CPU     18.43s WALL (       1 calls)

     Called by init_run:
     wfcinit      :      1.11s CPU      1.21s WALL (       1 calls)
     potinit      :      0.55s CPU      0.87s WALL (       1 calls)
     hinit0       :      0.89s CPU      1.18s WALL (       1 calls)

     Called by electrons:
     c_bands      :     14.31s CPU     14.31s WALL (       7 calls)
     sum_band     :      1.00s CPU      0.98s WALL (       7 calls)
     v_of_rho     :      2.81s CPU      3.42s WALL (       8 calls)
     mix_rho      :      0.25s CPU      0.29s WALL (       7 calls)

     Called by c_bands:
     init_us_2    :      0.08s CPU      0.10s WALL (      15 calls)
     regterg      :     14.23s CPU     14.24s WALL (       7 calls)

     Called by *egterg:
     rdiaghg      :      0.00s CPU      0.01s WALL (     119 calls)
     h_psi        :     11.91s CPU     11.90s WALL (     120 calls)
     g_psi        :      0.02s CPU      0.06s WALL (     112 calls)

     Called by h_psi:
     h_psi:calbec :      0.69s CPU      0.59s WALL (     120 calls)
     vloc_psi     :     10.84s CPU     10.91s WALL (     120 calls)
     add_vuspsi   :      0.30s CPU      0.35s WALL (     120 calls)

     General routines
     calbec       :      0.69s CPU      0.59s WALL (     120 calls)
     fft          :      1.77s CPU      2.02s WALL (      63 calls)
     ffts         :      0.12s CPU      0.12s WALL (       7 calls)
     fftw         :      9.50s CPU      9.87s WALL (     655 calls)

     Parallel routines

     PWSCF        :     20.73s CPU     21.85s WALL


   This run was terminated on:  10:19:34   6Dec2024            

=------------------------------------------------------------------------------=
   JOB DONE.
=------------------------------------------------------------------------------=
