
     Program PWSCF v.7.4 starts on  6Dec2024 at 10:18:53 

     This program is part of the open-source Quantum ESPRESSO suite
     for quantum simulation of materials; please cite
         "P. Giannozzi et al., J. Phys.:Condens. Matter 21 395502 (2009);
         "P. Giannozzi et al., J. Phys.:Condens. Matter 29 465901 (2017);
         "P. Giannozzi et al., J. Chem. Phys. 152 154105 (2020);
          URL http://www.quantum-espresso.org", 
     in publications or presentations arising from this work. More details at
     http://www.quantum-espresso.org/quote

     Parallel version (MPI), running on     1 processors

     MPI processes distributed on     1 nodes
     9730 MiB available memory on the printing compute node when the environment starts

     Waiting for input...
     Reading input from standard input

     Current dimensions of program PWSCF are:
     Max number of different atomic species (ntypx) = 10
     Max number of k-points (npk) =  40000
     Max angular momentum in pseudopotentials (lmaxx) =  4

     gamma-point specific algorithms are used

     Subspace diagonalization in iterative solution of the eigenvalue problem:
     a serial algorithm will be used


     G-vector sticks info
     --------------------
     sticks:   dense  smooth     PW     G-vecs:    dense   smooth      PW
     Sum        3181    3181    793               135043   135043   16879

     Using Slab Decomposition



     bravais-lattice index     =            1
     lattice parameter (alat)  =      20.0000  a.u.
     unit-cell volume          =    8000.0000 (a.u.)^3
     number of atoms/cell      =            3
     number of atomic types    =            2
     number of electrons       =         8.00
     number of Kohn-Sham states=           10
     kinetic-energy cutoff     =      25.0000  Ry
     charge density cutoff     =     100.0000  Ry
     scf convergence threshold =      1.0E-06
     mixing beta               =       0.7000
     number of iterations used =            8  plain     mixing
     Exchange-correlation= PBE
                           (   1   4   3   4   0   0   0)

     celldm(1)=  20.000000  celldm(2)=   0.000000  celldm(3)=   0.000000
     celldm(4)=   0.000000  celldm(5)=   0.000000  celldm(6)=   0.000000

     crystal axes: (cart. coord. in units of alat)
               a(1) = (   1.000000   0.000000   0.000000 )  
               a(2) = (   0.000000   1.000000   0.000000 )  
               a(3) = (   0.000000   0.000000   1.000000 )  

     reciprocal axes: (cart. coord. in units 2 pi/alat)
               b(1) = (  1.000000  0.000000  0.000000 )  
               b(2) = (  0.000000  1.000000  0.000000 )  
               b(3) = (  0.000000  0.000000  1.000000 )  


     PseudoPot. # 1 for H  read from file:
     /home/paolo/water_2/pp/H_ONCV_PBE-1.2.upf
     MD5 check sum: bf21e08b90ac4ce7d0149ac4e8138190
     Pseudo is Norm-conserving, Zval =  1.0
     Generated using ONCVPSP code by D. R. Hamann
     Using radial grid of  602 points,  2 beta functions with: 
                l(1) =   0
                l(2) =   0

     PseudoPot. # 2 for O  read from file:
     /home/paolo/water_2/pp/O_ONCV_PBE-1.2.upf
     MD5 check sum: e36c48deb68f4e355fffe4602be2c42c
     Pseudo is Norm-conserving, Zval =  6.0
     Generated using ONCVPSP code by D. R. Hamann
     Using radial grid of  602 points,  4 beta functions with: 
                l(1) =   0
                l(2) =   0
                l(3) =   1
                l(4) =   1

     atomic species   valence    mass     pseudopotential
     H                 1.00     1.00794     H ( 1.00)
     O                 6.00    15.99900     O ( 1.00)

     No symmetry found



   Cartesian axes

     site n.     atom                  positions (alat units)
         1        O      tau(   1) = (   0.1900832   0.2285368   0.0014910  )
         2        H      tau(   2) = (   0.2888315   0.2185258  -0.0007857  )
         3        H      tau(   3) = (   0.1669719   0.1344440  -0.0197264  )

     number of k points=     1
                       cart. coord. in units 2pi/alat
        k(    1) = (   0.0000000   0.0000000   0.0000000), wk =   2.0000000

     Dense  grid:    67522 G-vectors     FFT dimensions: (  64,  64,  64)

     Estimated max dynamical RAM per process >      56.59 MB

     Initial potential from superposition of free atoms

     starting charge       7.9948, renormalised to       8.0000

     negative rho (up, down):  2.442E-01 0.000E+00
     Starting wfcs are random

     total cpu time spent up to now is        0.9 secs

     Self-consistent Calculation

     iteration #  1     ecut=    25.00 Ry     beta= 0.70
     Davidson diagonalization with overlap
     ethr =  1.00E-02,  avg # of iterations = 10.0

     negative rho (up, down):  6.772E-02 0.000E+00

     total cpu time spent up to now is        1.3 secs

     total energy              =     -33.11334335 Ry
     estimated scf accuracy    <       0.18350362 Ry

     iteration #  2     ecut=    25.00 Ry     beta= 0.70
     Davidson diagonalization with overlap
     ethr =  2.29E-03,  avg # of iterations =  5.0

     negative rho (up, down):  2.218E-02 0.000E+00

     total cpu time spent up to now is        1.5 secs

     total energy              =     -33.12460295 Ry
     estimated scf accuracy    <       0.03279059 Ry

     iteration #  3     ecut=    25.00 Ry     beta= 0.70
     Davidson diagonalization with overlap
     ethr =  4.10E-04,  avg # of iterations =  4.0

     negative rho (up, down):  2.895E-03 0.000E+00

     total cpu time spent up to now is        1.7 secs

     total energy              =     -33.13173445 Ry
     estimated scf accuracy    <       0.00877139 Ry

     iteration #  4     ecut=    25.00 Ry     beta= 0.70
     Davidson diagonalization with overlap
     ethr =  1.10E-04,  avg # of iterations = 17.0

     negative rho (up, down):  2.183E-04 0.000E+00

     total cpu time spent up to now is        1.9 secs

     total energy              =     -33.13302039 Ry
     estimated scf accuracy    <       0.00007403 Ry

     iteration #  5     ecut=    25.00 Ry     beta= 0.70
     Davidson diagonalization with overlap
     c_bands:  1 eigenvalues not converged
     ethr =  9.25E-07,  avg # of iterations = 20.0

     negative rho (up, down):  1.760E-05 0.000E+00

     total cpu time spent up to now is        2.2 secs

     total energy              =     -33.13308777 Ry
     estimated scf accuracy    <       0.00002548 Ry

     iteration #  6     ecut=    25.00 Ry     beta= 0.70
     Davidson diagonalization with overlap
     ethr =  3.18E-07,  avg # of iterations =  5.0

     total cpu time spent up to now is        2.4 secs

     total energy              =     -33.13308788 Ry
     estimated scf accuracy    <       0.00000562 Ry

     iteration #  7     ecut=    25.00 Ry     beta= 0.70
     Davidson diagonalization with overlap
     ethr =  7.03E-08,  avg # of iterations = 10.0

     total cpu time spent up to now is        2.6 secs

     End of self-consistent calculation

          k = 0.0000 0.0000 0.0000 (  8440 PWs)   bands (ev):

   -26.7345 -12.0874  -9.8260  -6.8715  -1.2175   0.2246   0.5720   0.9512
     0.9743   1.0834

     highest occupied, lowest unoccupied level (ev):    -6.8715   -1.2175

!    total energy              =     -33.13308908 Ry
     estimated scf accuracy    <       0.00000002 Ry

     The total energy is the sum of the following terms:
     one-electron contribution =     -59.90614910 Ry
     hartree contribution      =      31.05100287 Ry
     xc contribution           =      -7.99097371 Ry
     ewald contribution        =       3.71303086 Ry

     charge density inside the Wigner-Seitz cell:    8.00000000

     reference position (x0):         3.99075622    4.31047608   -0.02891513 bohr

     Dipole moments (with respect to x0):
     Elect   0.3705  -0.5099  -0.1149 au (Ha),   0.9416  -1.2960  -0.2921 Debye
     Ionic  -0.0000  -0.0000   0.0000 au (Ha),  -0.0000  -0.0000   0.0000 Debye
     Total   0.3705  -0.5099  -0.1149 au (Ha),   0.9416  -1.2960  -0.2921 Debye

     Electrons quadrupole moment        -22.62567447 a.u. (Ha)
          Ions quadrupole moment          7.02223687 a.u. (Ha)
         Total quadrupole moment        -15.60343761 a.u. (Ha)

     *********    MAKOV-PAYNE CORRECTION    *********

     Makov-Payne correction with Madelung constant =   2.8373

     Makov-Payne correction     0.00000000 Ry =  0.000 eV (1st order, 1/a0)
                                0.00021491 Ry =  0.003 eV (2nd order, 1/a0^3)
                                0.00021491 Ry =  0.003 eV (total)

!    Total+Makov-Payne energy  =     -33.13287417 Ry
     Corrected vacuum level    =       0.11226709 eV

     convergence has been achieved in   7 iterations

     Writing all to output data dir /home/paolo/water_2/vacuum_file/water.save/ :
     XML data file, charge density, pseudopotentials, collected wavefunctions

     init_run     :      0.69s CPU      0.92s WALL (       1 calls)
     electrons    :      1.62s CPU      1.72s WALL (       1 calls)

     Called by init_run:
     wfcinit      :      0.28s CPU      0.34s WALL (       1 calls)
     potinit      :      0.09s CPU      0.14s WALL (       1 calls)
     hinit0       :      0.30s CPU      0.42s WALL (       1 calls)

     Called by electrons:
     c_bands      :      1.11s CPU      1.10s WALL (       7 calls)
     sum_band     :      0.09s CPU      0.09s WALL (       7 calls)
     v_of_rho     :      0.44s CPU      0.56s WALL (       8 calls)
     mix_rho      :      0.05s CPU      0.05s WALL (       7 calls)

     Called by c_bands:
     init_us_2    :      0.02s CPU      0.02s WALL (      15 calls)
     regterg      :      1.08s CPU      1.09s WALL (       7 calls)

     Called by *egterg:
     rdiaghg      :      0.00s CPU      0.01s WALL (      78 calls)
     h_psi        :      1.05s CPU      1.01s WALL (      79 calls)
     g_psi        :      0.03s CPU      0.01s WALL (      71 calls)

     Called by h_psi:
     h_psi:calbec :      0.11s CPU      0.08s WALL (      79 calls)
     vloc_psi     :      0.91s CPU      0.89s WALL (      79 calls)
     add_vuspsi   :      0.03s CPU      0.04s WALL (      79 calls)

     General routines
     calbec       :      0.11s CPU      0.08s WALL (      79 calls)
     fft          :      0.39s CPU      0.47s WALL (      63 calls)
     ffts         :      0.02s CPU      0.01s WALL (       7 calls)
     fftw         :      0.81s CPU      0.83s WALL (     469 calls)

     Parallel routines

     PWSCF        :      2.33s CPU      2.68s WALL


   This run was terminated on:  10:18:55   6Dec2024            

=------------------------------------------------------------------------------=
   JOB DONE.
=------------------------------------------------------------------------------=
