
     Program PWSCF v.7.4 starts on  6Dec2024 at 10:18:56 

     This program is part of the open-source Quantum ESPRESSO suite
     for quantum simulation of materials; please cite
         "P. Giannozzi et al., J. Phys.:Condens. Matter 21 395502 (2009);
         "P. Giannozzi et al., J. Phys.:Condens. Matter 29 465901 (2017);
         "P. Giannozzi et al., J. Chem. Phys. 152 154105 (2020);
          URL http://www.quantum-espresso.org", 
     in publications or presentations arising from this work. More details at
     http://www.quantum-espresso.org/quote

     Parallel version (MPI), running on     1 processors

     MPI processes distributed on     1 nodes
     9727 MiB available memory on the printing compute node when the environment starts

     Waiting for input...
     Reading input from standard input

     Current dimensions of program PWSCF are:
     Max number of different atomic species (ntypx) = 10
     Max number of k-points (npk) =  40000
     Max angular momentum in pseudopotentials (lmaxx) =  4

     gamma-point specific algorithms are used

     Subspace diagonalization in iterative solution of the eigenvalue problem:
     a serial algorithm will be used


     G-vector sticks info
     --------------------
     sticks:   dense  smooth     PW     G-vecs:    dense   smooth      PW
     Sum        4957    4957   1237               263787   263787   32987

     Using Slab Decomposition



     bravais-lattice index     =            1
     lattice parameter (alat)  =      25.0000  a.u.
     unit-cell volume          =   15625.0000 (a.u.)^3
     number of atoms/cell      =            3
     number of atomic types    =            2
     number of electrons       =         8.00
     number of Kohn-Sham states=           10
     kinetic-energy cutoff     =      25.0000  Ry
     charge density cutoff     =     100.0000  Ry
     scf convergence threshold =      1.0E-06
     mixing beta               =       0.7000
     number of iterations used =            8  plain     mixing
     Exchange-correlation= PBE
                           (   1   4   3   4   0   0   0)

     celldm(1)=  25.000000  celldm(2)=   0.000000  celldm(3)=   0.000000
     celldm(4)=   0.000000  celldm(5)=   0.000000  celldm(6)=   0.000000

     crystal axes: (cart. coord. in units of alat)
               a(1) = (   1.000000   0.000000   0.000000 )  
               a(2) = (   0.000000   1.000000   0.000000 )  
               a(3) = (   0.000000   0.000000   1.000000 )  

     reciprocal axes: (cart. coord. in units 2 pi/alat)
               b(1) = (  1.000000  0.000000  0.000000 )  
               b(2) = (  0.000000  1.000000  0.000000 )  
               b(3) = (  0.000000  0.000000  1.000000 )  


     PseudoPot. # 1 for H  read from file:
     /home/paolo/water_2/pp/H_ONCV_PBE-1.2.upf
     MD5 check sum: bf21e08b90ac4ce7d0149ac4e8138190
     Pseudo is Norm-conserving, Zval =  1.0
     Generated using ONCVPSP code by D. R. Hamann
     Using radial grid of  602 points,  2 beta functions with: 
                l(1) =   0
                l(2) =   0

     PseudoPot. # 2 for O  read from file:
     /home/paolo/water_2/pp/O_ONCV_PBE-1.2.upf
     MD5 check sum: e36c48deb68f4e355fffe4602be2c42c
     Pseudo is Norm-conserving, Zval =  6.0
     Generated using ONCVPSP code by D. R. Hamann
     Using radial grid of  602 points,  4 beta functions with: 
                l(1) =   0
                l(2) =   0
                l(3) =   1
                l(4) =   1

     atomic species   valence    mass     pseudopotential
     H                 1.00     1.00794     H ( 1.00)
     O                 6.00    15.99900     O ( 1.00)

     No symmetry found



   Cartesian axes

     site n.     atom                  positions (alat units)
         1        O      tau(   1) = (   0.1520665   0.1828294   0.0011928  )
         2        H      tau(   2) = (   0.2310652   0.1748206  -0.0006285  )
         3        H      tau(   3) = (   0.1335776   0.1075552  -0.0157811  )

     number of k points=     1
                       cart. coord. in units 2pi/alat
        k(    1) = (   0.0000000   0.0000000   0.0000000), wk =   2.0000000

     Dense  grid:   131894 G-vectors     FFT dimensions: (  80,  80,  80)

     Estimated max dynamical RAM per process >     110.09 MB

     Initial potential from superposition of free atoms

     starting charge       7.9948, renormalised to       8.0000

     negative rho (up, down):  3.418E-01 0.000E+00
     Starting wfcs are random

     total cpu time spent up to now is        1.5 secs

     Self-consistent Calculation

     iteration #  1     ecut=    25.00 Ry     beta= 0.70
     Davidson diagonalization with overlap
     ethr =  1.00E-02,  avg # of iterations = 10.0

     negative rho (up, down):  9.689E-02 0.000E+00

     total cpu time spent up to now is        2.2 secs

     total energy              =     -33.11940208 Ry
     estimated scf accuracy    <       0.17651073 Ry

     iteration #  2     ecut=    25.00 Ry     beta= 0.70
     Davidson diagonalization with overlap
     ethr =  2.21E-03,  avg # of iterations =  7.0

     negative rho (up, down):  2.979E-02 0.000E+00

     total cpu time spent up to now is        2.7 secs

     total energy              =     -33.12615372 Ry
     estimated scf accuracy    <       0.02911768 Ry

     iteration #  3     ecut=    25.00 Ry     beta= 0.70
     Davidson diagonalization with overlap
     ethr =  3.64E-04,  avg # of iterations = 13.0

     negative rho (up, down):  3.975E-03 0.000E+00

     total cpu time spent up to now is        3.2 secs

     total energy              =     -33.13222710 Ry
     estimated scf accuracy    <       0.00970927 Ry

     iteration #  4     ecut=    25.00 Ry     beta= 0.70
     Davidson diagonalization with overlap
     ethr =  1.21E-04,  avg # of iterations =  4.0

     negative rho (up, down):  5.982E-04 0.000E+00

     total cpu time spent up to now is        3.5 secs

     total energy              =     -33.13358690 Ry
     estimated scf accuracy    <       0.00011914 Ry

     iteration #  5     ecut=    25.00 Ry     beta= 0.70
     Davidson diagonalization with overlap
     c_bands:  2 eigenvalues not converged
     ethr =  1.49E-06,  avg # of iterations = 20.0

     negative rho (up, down):  1.318E-04 0.000E+00

     total cpu time spent up to now is        4.3 secs

     total energy              =     -33.13367883 Ry
     estimated scf accuracy    <       0.00002208 Ry

     iteration #  6     ecut=    25.00 Ry     beta= 0.70
     Davidson diagonalization with overlap
     c_bands:  2 eigenvalues not converged
     ethr =  2.76E-07,  avg # of iterations = 20.0

     total cpu time spent up to now is        4.8 secs

     total energy              =     -33.13368006 Ry
     estimated scf accuracy    <       0.00000604 Ry

     iteration #  7     ecut=    25.00 Ry     beta= 0.70
     Davidson diagonalization with overlap
     ethr =  7.55E-08,  avg # of iterations = 14.0

     total cpu time spent up to now is        5.4 secs

     End of self-consistent calculation

          k = 0.0000 0.0000 0.0000 ( 16494 PWs)   bands (ev):

   -26.7898 -12.1431  -9.8804  -6.9271  -1.2338   0.0167   0.3558   0.5853
     0.5989   0.6812

     highest occupied, lowest unoccupied level (ev):    -6.9271   -1.2338

!    total energy              =     -33.13368116 Ry
     estimated scf accuracy    <       0.00000002 Ry

     The total energy is the sum of the following terms:
     one-electron contribution =     -63.47808464 Ry
     hartree contribution      =      32.82114007 Ry
     xc contribution           =      -7.99111727 Ry
     ewald contribution        =       5.51438068 Ry

     charge density inside the Wigner-Seitz cell:    8.00000000

     reference position (x0):         3.99075622    4.31047608   -0.02891513 bohr

     Dipole moments (with respect to x0):
     Elect   0.3696  -0.5085  -0.1146 au (Ha),   0.9395  -1.2925  -0.2913 Debye
     Ionic  -0.0000   0.0000   0.0000 au (Ha),  -0.0000   0.0000   0.0000 Debye
     Total   0.3696  -0.5085  -0.1146 au (Ha),   0.9395  -1.2925  -0.2913 Debye

     Electrons quadrupole moment        -22.69059999 a.u. (Ha)
          Ions quadrupole moment          7.02223687 a.u. (Ha)
         Total quadrupole moment        -15.66836312 a.u. (Ha)

     *********    MAKOV-PAYNE CORRECTION    *********

     Makov-Payne correction with Madelung constant =   2.8373

     Makov-Payne correction     0.00000000 Ry =  0.000 eV (1st order, 1/a0)
                                0.00010946 Ry =  0.001 eV (2nd order, 1/a0^3)
                                0.00010946 Ry =  0.001 eV (total)

!    Total+Makov-Payne energy  =     -33.13357170 Ry
     Corrected vacuum level    =       0.05792064 eV

     convergence has been achieved in   7 iterations

     Writing all to output data dir /home/paolo/water_2/vacuum_file/water.save/ :
     XML data file, charge density, pseudopotentials, collected wavefunctions

     init_run     :      1.09s CPU      1.49s WALL (       1 calls)
     electrons    :      3.75s CPU      3.88s WALL (       1 calls)

     Called by init_run:
     wfcinit      :      0.42s CPU      0.57s WALL (       1 calls)
     potinit      :      0.16s CPU      0.25s WALL (       1 calls)
     hinit0       :      0.47s CPU      0.63s WALL (       1 calls)

     Called by electrons:
     c_bands      :      2.69s CPU      2.70s WALL (       7 calls)
     sum_band     :      0.20s CPU      0.21s WALL (       7 calls)
     v_of_rho     :      0.80s CPU      1.01s WALL (       8 calls)
     mix_rho      :      0.11s CPU      0.12s WALL (       7 calls)

     Called by c_bands:
     init_us_2    :      0.03s CPU      0.03s WALL (      15 calls)
     regterg      :      2.69s CPU      2.68s WALL (       7 calls)

     Called by *egterg:
     rdiaghg      :      0.00s CPU      0.01s WALL (      95 calls)
     h_psi        :      2.27s CPU      2.33s WALL (      96 calls)
     g_psi        :      0.03s CPU      0.02s WALL (      88 calls)

     Called by h_psi:
     h_psi:calbec :      0.22s CPU      0.16s WALL (      96 calls)
     vloc_psi     :      1.97s CPU      2.07s WALL (      96 calls)
     add_vuspsi   :      0.08s CPU      0.09s WALL (      96 calls)

     General routines
     calbec       :      0.22s CPU      0.16s WALL (      96 calls)
     fft          :      0.70s CPU      0.82s WALL (      63 calls)
     ffts         :      0.03s CPU      0.03s WALL (       7 calls)
     fftw         :      1.77s CPU      1.91s WALL (     505 calls)

     Parallel routines

     PWSCF        :      4.86s CPU      5.40s WALL


   This run was terminated on:  10:19: 1   6Dec2024            

=------------------------------------------------------------------------------=
   JOB DONE.
=------------------------------------------------------------------------------=
