
     Program PWSCF v.7.4 starts on  6Dec2024 at 11:24:26 

     This program is part of the open-source Quantum ESPRESSO suite
     for quantum simulation of materials; please cite
         "P. Giannozzi et al., J. Phys.:Condens. Matter 21 395502 (2009);
         "P. Giannozzi et al., J. Phys.:Condens. Matter 29 465901 (2017);
         "P. Giannozzi et al., J. Chem. Phys. 152 154105 (2020);
          URL http://www.quantum-espresso.org", 
     in publications or presentations arising from this work. More details at
     http://www.quantum-espresso.org/quote

     Parallel version (MPI), running on     1 processors

     MPI processes distributed on     1 nodes
     8611 MiB available memory on the printing compute node when the environment starts

     Waiting for input...
     Reading input from standard input

     Current dimensions of program PWSCF are:
     Max number of different atomic species (ntypx) = 10
     Max number of k-points (npk) =  40000
     Max angular momentum in pseudopotentials (lmaxx) =  4

     gamma-point specific algorithms are used

     Subspace diagonalization in iterative solution of the eigenvalue problem:
     a serial algorithm will be used


     G-vector sticks info
     --------------------
     sticks:   dense  smooth     PW     G-vecs:    dense   smooth      PW
     Sum       23857   23857   5957              2769959  2769959  346275

     Using Slab Decomposition



     bravais-lattice index     =            1
     lattice parameter (alat)  =      30.6000  a.u.
     unit-cell volume          =   28652.6160 (a.u.)^3
     number of atoms/cell      =            3
     number of atomic types    =            2
     number of electrons       =         8.00
     number of Kohn-Sham states=           10
     kinetic-energy cutoff     =      80.0000  Ry
     charge density cutoff     =     320.0000  Ry
     scf convergence threshold =      1.0E-06
     mixing beta               =       0.7000
     number of iterations used =            8  plain     mixing
     Exchange-correlation= PBE
                           (   1   4   3   4   0   0   0)

     celldm(1)=  30.600000  celldm(2)=   0.000000  celldm(3)=   0.000000
     celldm(4)=   0.000000  celldm(5)=   0.000000  celldm(6)=   0.000000

     crystal axes: (cart. coord. in units of alat)
               a(1) = (   1.000000   0.000000   0.000000 )  
               a(2) = (   0.000000   1.000000   0.000000 )  
               a(3) = (   0.000000   0.000000   1.000000 )  

     reciprocal axes: (cart. coord. in units 2 pi/alat)
               b(1) = (  1.000000  0.000000  0.000000 )  
               b(2) = (  0.000000  1.000000  0.000000 )  
               b(3) = (  0.000000  0.000000  1.000000 )  


     PseudoPot. # 1 for H  read from file:
     /home/paolo/water_2/pp/H_ONCV_PBE-1.2.upf
     MD5 check sum: bf21e08b90ac4ce7d0149ac4e8138190
     Pseudo is Norm-conserving, Zval =  1.0
     Generated using ONCVPSP code by D. R. Hamann
     Using radial grid of  602 points,  2 beta functions with: 
                l(1) =   0
                l(2) =   0

     PseudoPot. # 2 for O  read from file:
     /home/paolo/water_2/pp/O_ONCV_PBE-1.2.upf
     MD5 check sum: e36c48deb68f4e355fffe4602be2c42c
     Pseudo is Norm-conserving, Zval =  6.0
     Generated using ONCVPSP code by D. R. Hamann
     Using radial grid of  602 points,  4 beta functions with: 
                l(1) =   0
                l(2) =   0
                l(3) =   1
                l(4) =   1

     atomic species   valence    mass     pseudopotential
     H                 1.00     1.00794     H ( 1.00)
     O                 6.00    15.99900     O ( 1.00)

     No symmetry found



   Cartesian axes

     site n.     atom                  positions (alat units)
         1        O      tau(   1) = (   0.1242374   0.1493704   0.0009745  )
         2        H      tau(   2) = (   0.1887788   0.1428273  -0.0005135  )
         3        H      tau(   3) = (   0.1091320   0.0878719  -0.0128930  )

     number of k points=     1
                       cart. coord. in units 2pi/alat
        k(    1) = (   0.0000000   0.0000000   0.0000000), wk =   2.0000000

     Dense  grid:  1384980 G-vectors     FFT dimensions: ( 180, 180, 180)

     Estimated max dynamical RAM per process >       1.16 GB

     Initial potential from superposition of free atoms

     starting charge       7.9948, renormalised to       8.0000

     negative rho (up, down):  3.145E-04 0.000E+00
     Starting wfcs are random

     total cpu time spent up to now is        8.8 secs

     Self-consistent Calculation

     iteration #  1     ecut=    80.00 Ry     beta= 0.70
     Davidson diagonalization with overlap
     ethr =  1.00E-02,  avg # of iterations = 11.0

     negative rho (up, down):  1.645E-05 0.000E+00

     total cpu time spent up to now is       22.5 secs

     total energy              =     -34.15823906 Ry
     estimated scf accuracy    <       0.36310091 Ry

     iteration #  2     ecut=    80.00 Ry     beta= 0.70
     Davidson diagonalization with overlap
     ethr =  4.54E-03,  avg # of iterations =  3.0

     negative rho (up, down):  3.485E-06 0.000E+00

     total cpu time spent up to now is       29.3 secs

     total energy              =     -34.22753064 Ry
     estimated scf accuracy    <       0.36637673 Ry

     iteration #  3     ecut=    80.00 Ry     beta= 0.70
     Davidson diagonalization with overlap
     ethr =  4.54E-03,  avg # of iterations =  2.0

     negative rho (up, down):  9.711E-06 0.000E+00

     total cpu time spent up to now is       35.1 secs

     total energy              =     -34.29869961 Ry
     estimated scf accuracy    <       0.00345245 Ry

     iteration #  4     ecut=    80.00 Ry     beta= 0.70
     Davidson diagonalization with overlap
     c_bands:  4 eigenvalues not converged
     ethr =  4.32E-05,  avg # of iterations = 20.0

     total cpu time spent up to now is       50.2 secs

     total energy              =     -34.30002133 Ry
     estimated scf accuracy    <       0.00224199 Ry

     iteration #  5     ecut=    80.00 Ry     beta= 0.70
     Davidson diagonalization with overlap
     ethr =  2.80E-05,  avg # of iterations = 12.0

     total cpu time spent up to now is       57.8 secs

     total energy              =     -34.29990137 Ry
     estimated scf accuracy    <       0.00050656 Ry

     iteration #  6     ecut=    80.00 Ry     beta= 0.70
     Davidson diagonalization with overlap
     ethr =  6.33E-06,  avg # of iterations =  5.0

     total cpu time spent up to now is       64.7 secs

     total energy              =     -34.30001760 Ry
     estimated scf accuracy    <       0.00000437 Ry

     iteration #  7     ecut=    80.00 Ry     beta= 0.70
     Davidson diagonalization with overlap
     c_bands:  2 eigenvalues not converged
     ethr =  5.46E-08,  avg # of iterations = 20.0

     total cpu time spent up to now is       78.1 secs

     End of self-consistent calculation

          k = 0.0000 0.0000 0.0000 (173138 PWs)   bands (ev):

   -24.5411 -12.0762  -9.4969  -7.0705  -1.2485   0.0692   0.2204   0.4680
     0.4972   0.5669

     highest occupied, lowest unoccupied level (ev):    -7.0705   -1.2485

!    total energy              =     -34.30001884 Ry
     estimated scf accuracy    <       0.00000021 Ry

     The total energy is the sum of the following terms:
     one-electron contribution =     -68.62360722 Ry
     hartree contribution      =      35.77344565 Ry
     xc contribution           =      -8.28660349 Ry
     ewald contribution        =       6.83674622 Ry

     charge density inside the Wigner-Seitz cell:    8.00000000

     reference position (x0):         3.99075622    4.31047608   -0.02891513 bohr

     Dipole moments (with respect to x0):
     Elect   0.4413  -0.6076  -0.1372 au (Ha),   1.1216  -1.5444  -0.3486 Debye
     Ionic  -0.0000   0.0000   0.0000 au (Ha),  -0.0000   0.0000   0.0000 Debye
     Total   0.4413  -0.6076  -0.1372 au (Ha),   1.1216  -1.5444  -0.3486 Debye

     Electrons quadrupole moment        -21.28704948 a.u. (Ha)
          Ions quadrupole moment          7.02223687 a.u. (Ha)
         Total quadrupole moment        -14.26481261 a.u. (Ha)

     *********    MAKOV-PAYNE CORRECTION    *********

     Makov-Payne correction with Madelung constant =   2.8373

     Makov-Payne correction     0.00000000 Ry =  0.000 eV (1st order, 1/a0)
                                0.00008519 Ry =  0.001 eV (2nd order, 1/a0^3)
                                0.00008519 Ry =  0.001 eV (total)

!    Total+Makov-Payne energy  =     -34.29993365 Ry
     Corrected vacuum level    =       0.02837115 eV

     convergence has been achieved in   7 iterations

     Writing all to output data dir ./ediff_file/water.save/ :
     XML data file, charge density, pseudopotentials, collected wavefunctions

     init_run     :      6.64s CPU      8.81s WALL (       1 calls)
     electrons    :     58.69s CPU     69.66s WALL (       1 calls)

     Called by init_run:
     wfcinit      :      2.44s CPU      2.85s WALL (       1 calls)
     potinit      :      1.58s CPU      2.78s WALL (       1 calls)
     hinit0       :      2.20s CPU      2.68s WALL (       1 calls)

     Called by electrons:
     c_bands      :     44.03s CPU     44.75s WALL (       7 calls)
     sum_band     :      4.03s CPU      5.10s WALL (       7 calls)
     v_of_rho     :     10.03s CPU     19.18s WALL (       8 calls)
     mix_rho      :      1.36s CPU      2.34s WALL (       7 calls)

     Called by c_bands:
     init_us_2    :      0.38s CPU      0.41s WALL (      15 calls)
     regterg      :     43.77s CPU     44.47s WALL (       7 calls)

     Called by *egterg:
     rdiaghg      :      0.00s CPU      0.01s WALL (      80 calls)
     h_psi        :     35.78s CPU     36.10s WALL (      81 calls)
     g_psi        :      0.20s CPU      0.17s WALL (      73 calls)

     Called by h_psi:
     h_psi:calbec :      1.81s CPU      1.73s WALL (      81 calls)
     vloc_psi     :     32.67s CPU     33.04s WALL (      81 calls)
     add_vuspsi   :      1.16s CPU      1.16s WALL (      81 calls)

     General routines
     calbec       :      1.81s CPU      1.73s WALL (      81 calls)
     fft          :      5.94s CPU      6.12s WALL (      63 calls)
     ffts         :      0.50s CPU      0.46s WALL (       7 calls)
     fftw         :     30.47s CPU     30.57s WALL (     491 calls)

     Parallel routines

     PWSCF        :   1m 5.36s CPU   1m18.59s WALL


   This run was terminated on:  11:25:44   6Dec2024            

=------------------------------------------------------------------------------=
   JOB DONE.
=------------------------------------------------------------------------------=
