
     Program PWSCF v.7.4 starts on  6Dec2024 at 11: 2:33 

     This program is part of the open-source Quantum ESPRESSO suite
     for quantum simulation of materials; please cite
         "P. Giannozzi et al., J. Phys.:Condens. Matter 21 395502 (2009);
         "P. Giannozzi et al., J. Phys.:Condens. Matter 29 465901 (2017);
         "P. Giannozzi et al., J. Chem. Phys. 152 154105 (2020);
          URL http://www.quantum-espresso.org", 
     in publications or presentations arising from this work. More details at
     http://www.quantum-espresso.org/quote

     Parallel version (MPI), running on     1 processors

     MPI processes distributed on     1 nodes
     9582 MiB available memory on the printing compute node when the environment starts

     Waiting for input...
     Reading input from standard input

     Current dimensions of program PWSCF are:
     Max number of different atomic species (ntypx) = 10
     Max number of k-points (npk) =  40000
     Max angular momentum in pseudopotentials (lmaxx) =  4

     gamma-point specific algorithms are used

     Subspace diagonalization in iterative solution of the eigenvalue problem:
     a serial algorithm will be used


     G-vector sticks info
     --------------------
     sticks:   dense  smooth     PW     G-vecs:    dense   smooth      PW
     Sum        8585    8585   2145               599161   599161   74773

     Using Slab Decomposition



     bravais-lattice index     =            1
     lattice parameter (alat)  =      30.0000  a.u.
     unit-cell volume          =   27000.0000 (a.u.)^3
     number of atoms/cell      =            3
     number of atomic types    =            2
     number of electrons       =         8.00
     number of Kohn-Sham states=           10
     kinetic-energy cutoff     =      30.0000  Ry
     charge density cutoff     =     120.0000  Ry
     scf convergence threshold =      1.0E-06
     mixing beta               =       0.7000
     number of iterations used =            8  plain     mixing
     Exchange-correlation= PBE
                           (   1   4   3   4   0   0   0)

     celldm(1)=  30.000000  celldm(2)=   0.000000  celldm(3)=   0.000000
     celldm(4)=   0.000000  celldm(5)=   0.000000  celldm(6)=   0.000000

     crystal axes: (cart. coord. in units of alat)
               a(1) = (   1.000000   0.000000   0.000000 )  
               a(2) = (   0.000000   1.000000   0.000000 )  
               a(3) = (   0.000000   0.000000   1.000000 )  

     reciprocal axes: (cart. coord. in units 2 pi/alat)
               b(1) = (  1.000000  0.000000  0.000000 )  
               b(2) = (  0.000000  1.000000  0.000000 )  
               b(3) = (  0.000000  0.000000  1.000000 )  


     PseudoPot. # 1 for H  read from file:
     /home/paolo/water_2/pp/H_ONCV_PBE-1.2.upf
     MD5 check sum: bf21e08b90ac4ce7d0149ac4e8138190
     Pseudo is Norm-conserving, Zval =  1.0
     Generated using ONCVPSP code by D. R. Hamann
     Using radial grid of  602 points,  2 beta functions with: 
                l(1) =   0
                l(2) =   0

     PseudoPot. # 2 for O  read from file:
     /home/paolo/water_2/pp/O_ONCV_PBE-1.2.upf
     MD5 check sum: e36c48deb68f4e355fffe4602be2c42c
     Pseudo is Norm-conserving, Zval =  6.0
     Generated using ONCVPSP code by D. R. Hamann
     Using radial grid of  602 points,  4 beta functions with: 
                l(1) =   0
                l(2) =   0
                l(3) =   1
                l(4) =   1

     atomic species   valence    mass     pseudopotential
     H                 1.00     1.00794     H ( 1.00)
     O                 6.00    15.99900     O ( 1.00)

     No symmetry found



   Cartesian axes

     site n.     atom                  positions (alat units)
         1        O      tau(   1) = (   0.1267221   0.1523579   0.0009940  )
         2        H      tau(   2) = (   0.1925544   0.1456839  -0.0005238  )
         3        H      tau(   3) = (   0.1113146   0.0896293  -0.0131509  )

     number of k points=     1
                       cart. coord. in units 2pi/alat
        k(    1) = (   0.0000000   0.0000000   0.0000000), wk =   2.0000000

     Dense  grid:   299581 G-vectors     FFT dimensions: ( 108, 108, 108)

     Estimated max dynamical RAM per process >     256.16 MB

     Initial potential from superposition of free atoms

     starting charge       7.9948, renormalised to       8.0000

     negative rho (up, down):  1.969E-01 0.000E+00
     Starting wfcs are random

     total cpu time spent up to now is        2.2 secs

     Self-consistent Calculation

     iteration #  1     ecut=    30.00 Ry     beta= 0.70
     Davidson diagonalization with overlap
     ethr =  1.00E-02,  avg # of iterations = 10.0

     negative rho (up, down):  5.675E-02 0.000E+00

     total cpu time spent up to now is        4.2 secs

     total energy              =     -33.55300459 Ry
     estimated scf accuracy    <       0.13047734 Ry

     iteration #  2     ecut=    30.00 Ry     beta= 0.70
     Davidson diagonalization with overlap
     ethr =  1.63E-03,  avg # of iterations =  8.0

     negative rho (up, down):  6.372E-03 0.000E+00

     total cpu time spent up to now is        5.4 secs

     total energy              =     -33.55830834 Ry
     estimated scf accuracy    <       0.00715257 Ry

     iteration #  3     ecut=    30.00 Ry     beta= 0.70
     Davidson diagonalization with overlap
     ethr =  8.94E-05,  avg # of iterations =  9.0

     negative rho (up, down):  1.459E-03 0.000E+00

     total cpu time spent up to now is        6.7 secs

     total energy              =     -33.55898788 Ry
     estimated scf accuracy    <       0.00017978 Ry

     iteration #  4     ecut=    30.00 Ry     beta= 0.70
     Davidson diagonalization with overlap
     c_bands:  1 eigenvalues not converged
     ethr =  2.25E-06,  avg # of iterations = 20.0

     negative rho (up, down):  2.009E-05 0.000E+00

     total cpu time spent up to now is        8.7 secs

     total energy              =     -33.55904131 Ry
     estimated scf accuracy    <       0.00003018 Ry

     iteration #  5     ecut=    30.00 Ry     beta= 0.70
     Davidson diagonalization with overlap
     c_bands:  2 eigenvalues not converged
     ethr =  3.77E-07,  avg # of iterations = 20.0

     negative rho (up, down):  9.522E-06 0.000E+00

     total cpu time spent up to now is       10.7 secs

     total energy              =     -33.55905045 Ry
     estimated scf accuracy    <       0.00001732 Ry

     iteration #  6     ecut=    30.00 Ry     beta= 0.70
     Davidson diagonalization with overlap
     ethr =  2.16E-07,  avg # of iterations = 11.0

     total cpu time spent up to now is       11.7 secs

     total energy              =     -33.55905127 Ry
     estimated scf accuracy    <       0.00000193 Ry

     iteration #  7     ecut=    30.00 Ry     beta= 0.70
     Davidson diagonalization with overlap
     c_bands:  3 eigenvalues not converged
     ethr =  2.42E-08,  avg # of iterations = 20.0

     total cpu time spent up to now is       13.3 secs

     End of self-consistent calculation

          k = 0.0000 0.0000 0.0000 ( 37387 PWs)   bands (ev):

   -25.9143 -12.1847  -9.7925  -7.0055  -1.2349  -0.0302   0.2375   0.4083
     0.4234   0.4818

     highest occupied, lowest unoccupied level (ev):    -7.0055   -1.2349

!    total energy              =     -33.55905193 Ry
     estimated scf accuracy    <       0.00000020 Ry

     The total energy is the sum of the following terms:
     one-electron contribution =     -66.77965110 Ry
     hartree contribution      =      34.60480122 Ry
     xc contribution           =      -8.10276964 Ry
     ewald contribution        =       6.71856759 Ry

     charge density inside the Wigner-Seitz cell:    8.00000000

     reference position (x0):         3.99075622    4.31047608   -0.02891513 bohr

     Dipole moments (with respect to x0):
     Elect   0.3991  -0.5497  -0.1240 au (Ha),   1.0144  -1.3972  -0.3152 Debye
     Ionic  -0.0000   0.0000   0.0000 au (Ha),  -0.0000   0.0000   0.0000 Debye
     Total   0.3991  -0.5497  -0.1240 au (Ha),   1.0144  -1.3972  -0.3152 Debye

     Electrons quadrupole moment        -22.16820725 a.u. (Ha)
          Ions quadrupole moment          7.02223687 a.u. (Ha)
         Total quadrupole moment        -15.14597038 a.u. (Ha)

     *********    MAKOV-PAYNE CORRECTION    *********

     Makov-Payne correction with Madelung constant =   2.8373

     Makov-Payne correction     0.00000000 Ry =  0.000 eV (1st order, 1/a0)
                                0.00007398 Ry =  0.001 eV (2nd order, 1/a0^3)
                                0.00007398 Ry =  0.001 eV (total)

!    Total+Makov-Payne energy  =     -33.55897795 Ry
     Corrected vacuum level    =       0.03240257 eV

     convergence has been achieved in   7 iterations

     Writing all to output data dir ./ecut_file/water.save/ :
     XML data file, charge density, pseudopotentials, collected wavefunctions

     init_run     :      1.58s CPU      2.15s WALL (       1 calls)
     electrons    :     11.06s CPU     11.23s WALL (       1 calls)

     Called by init_run:
     wfcinit      :      0.56s CPU      0.67s WALL (       1 calls)
     potinit      :      0.42s CPU      0.63s WALL (       1 calls)
     hinit0       :      0.53s CPU      0.75s WALL (       1 calls)

     Called by electrons:
     c_bands      :      8.52s CPU      8.52s WALL (       7 calls)
     sum_band     :      0.66s CPU      0.65s WALL (       7 calls)
     v_of_rho     :      1.95s CPU      2.25s WALL (       8 calls)
     mix_rho      :      0.20s CPU      0.22s WALL (       7 calls)

     Called by c_bands:
     init_us_2    :      0.06s CPU      0.08s WALL (      15 calls)
     regterg      :      8.48s CPU      8.46s WALL (       7 calls)

     Called by *egterg:
     rdiaghg      :      0.02s CPU      0.01s WALL (     105 calls)
     h_psi        :      6.44s CPU      6.70s WALL (     106 calls)
     g_psi        :      0.06s CPU      0.04s WALL (      98 calls)

     Called by h_psi:
     h_psi:calbec :      0.34s CPU      0.43s WALL (     106 calls)
     vloc_psi     :      5.86s CPU      6.01s WALL (     106 calls)
     add_vuspsi   :      0.20s CPU      0.24s WALL (     106 calls)

     General routines
     calbec       :      0.34s CPU      0.42s WALL (     106 calls)
     fft          :      1.22s CPU      1.36s WALL (      63 calls)
     ffts         :      0.09s CPU      0.09s WALL (       7 calls)
     fftw         :      5.36s CPU      5.41s WALL (     555 calls)

     Parallel routines

     PWSCF        :     12.66s CPU     13.42s WALL


   This run was terminated on:  11: 2:46   6Dec2024            

=------------------------------------------------------------------------------=
   JOB DONE.
=------------------------------------------------------------------------------=
