
     Program PWSCF v.7.4 starts on  6Dec2024 at 11: 3: 4 

     This program is part of the open-source Quantum ESPRESSO suite
     for quantum simulation of materials; please cite
         "P. Giannozzi et al., J. Phys.:Condens. Matter 21 395502 (2009);
         "P. Giannozzi et al., J. Phys.:Condens. Matter 29 465901 (2017);
         "P. Giannozzi et al., J. Chem. Phys. 152 154105 (2020);
          URL http://www.quantum-espresso.org", 
     in publications or presentations arising from this work. More details at
     http://www.quantum-espresso.org/quote

     Parallel version (MPI), running on     1 processors

     MPI processes distributed on     1 nodes
     9636 MiB available memory on the printing compute node when the environment starts

     Waiting for input...
     Reading input from standard input

     Current dimensions of program PWSCF are:
     Max number of different atomic species (ntypx) = 10
     Max number of k-points (npk) =  40000
     Max angular momentum in pseudopotentials (lmaxx) =  4

     gamma-point specific algorithms are used

     Subspace diagonalization in iterative solution of the eigenvalue problem:
     a serial algorithm will be used


     G-vector sticks info
     --------------------
     sticks:   dense  smooth     PW     G-vecs:    dense   smooth      PW
     Sum       11449   11449   2869               922329   922329  115313

     Using Slab Decomposition



     bravais-lattice index     =            1
     lattice parameter (alat)  =      30.0000  a.u.
     unit-cell volume          =   27000.0000 (a.u.)^3
     number of atoms/cell      =            3
     number of atomic types    =            2
     number of electrons       =         8.00
     number of Kohn-Sham states=           10
     kinetic-energy cutoff     =      40.0000  Ry
     charge density cutoff     =     160.0000  Ry
     scf convergence threshold =      1.0E-06
     mixing beta               =       0.7000
     number of iterations used =            8  plain     mixing
     Exchange-correlation= PBE
                           (   1   4   3   4   0   0   0)

     celldm(1)=  30.000000  celldm(2)=   0.000000  celldm(3)=   0.000000
     celldm(4)=   0.000000  celldm(5)=   0.000000  celldm(6)=   0.000000

     crystal axes: (cart. coord. in units of alat)
               a(1) = (   1.000000   0.000000   0.000000 )  
               a(2) = (   0.000000   1.000000   0.000000 )  
               a(3) = (   0.000000   0.000000   1.000000 )  

     reciprocal axes: (cart. coord. in units 2 pi/alat)
               b(1) = (  1.000000  0.000000  0.000000 )  
               b(2) = (  0.000000  1.000000  0.000000 )  
               b(3) = (  0.000000  0.000000  1.000000 )  


     PseudoPot. # 1 for H  read from file:
     /home/paolo/water_2/pp/H_ONCV_PBE-1.2.upf
     MD5 check sum: bf21e08b90ac4ce7d0149ac4e8138190
     Pseudo is Norm-conserving, Zval =  1.0
     Generated using ONCVPSP code by D. R. Hamann
     Using radial grid of  602 points,  2 beta functions with: 
                l(1) =   0
                l(2) =   0

     PseudoPot. # 2 for O  read from file:
     /home/paolo/water_2/pp/O_ONCV_PBE-1.2.upf
     MD5 check sum: e36c48deb68f4e355fffe4602be2c42c
     Pseudo is Norm-conserving, Zval =  6.0
     Generated using ONCVPSP code by D. R. Hamann
     Using radial grid of  602 points,  4 beta functions with: 
                l(1) =   0
                l(2) =   0
                l(3) =   1
                l(4) =   1

     atomic species   valence    mass     pseudopotential
     H                 1.00     1.00794     H ( 1.00)
     O                 6.00    15.99900     O ( 1.00)

     No symmetry found



   Cartesian axes

     site n.     atom                  positions (alat units)
         1        O      tau(   1) = (   0.1267221   0.1523579   0.0009940  )
         2        H      tau(   2) = (   0.1925544   0.1456839  -0.0005238  )
         3        H      tau(   3) = (   0.1113146   0.0896293  -0.0131509  )

     number of k points=     1
                       cart. coord. in units 2pi/alat
        k(    1) = (   0.0000000   0.0000000   0.0000000), wk =   2.0000000

     Dense  grid:   461165 G-vectors     FFT dimensions: ( 125, 125, 125)

     Estimated max dynamical RAM per process >     395.09 MB

     Initial potential from superposition of free atoms

     starting charge       7.9948, renormalised to       8.0000

     negative rho (up, down):  4.255E-02 0.000E+00
     Starting wfcs are random

     total cpu time spent up to now is        2.6 secs

     Self-consistent Calculation

     iteration #  1     ecut=    40.00 Ry     beta= 0.70
     Davidson diagonalization with overlap
     ethr =  1.00E-02,  avg # of iterations = 11.0

     negative rho (up, down):  1.204E-02 0.000E+00

     total cpu time spent up to now is        6.4 secs

     total energy              =     -33.96511683 Ry
     estimated scf accuracy    <       0.22369770 Ry

     iteration #  2     ecut=    40.00 Ry     beta= 0.70
     Davidson diagonalization with overlap
     ethr =  2.80E-03,  avg # of iterations =  3.0

     negative rho (up, down):  6.795E-03 0.000E+00

     total cpu time spent up to now is        8.1 secs

     total energy              =     -34.00413224 Ry
     estimated scf accuracy    <       0.13053414 Ry

     iteration #  3     ecut=    40.00 Ry     beta= 0.70
     Davidson diagonalization with overlap
     ethr =  1.63E-03,  avg # of iterations = 10.0

     negative rho (up, down):  7.760E-05 0.000E+00

     total cpu time spent up to now is       10.3 secs

     total energy              =     -34.03099646 Ry
     estimated scf accuracy    <       0.00355810 Ry

     iteration #  4     ecut=    40.00 Ry     beta= 0.70
     Davidson diagonalization with overlap
     c_bands:  1 eigenvalues not converged
     ethr =  4.45E-05,  avg # of iterations = 20.0

     negative rho (up, down):  8.514E-05 0.000E+00

     total cpu time spent up to now is       14.0 secs

     total energy              =     -34.03141302 Ry
     estimated scf accuracy    <       0.00020163 Ry

     iteration #  5     ecut=    40.00 Ry     beta= 0.70
     Davidson diagonalization with overlap
     ethr =  2.52E-06,  avg # of iterations = 15.0

     negative rho (up, down):  1.897E-05 0.000E+00

     total cpu time spent up to now is       16.5 secs

     total energy              =     -34.03143099 Ry
     estimated scf accuracy    <       0.00002394 Ry

     iteration #  6     ecut=    40.00 Ry     beta= 0.70
     Davidson diagonalization with overlap
     ethr =  2.99E-07,  avg # of iterations = 19.0

     total cpu time spent up to now is       19.6 secs

     End of self-consistent calculation

          k = 0.0000 0.0000 0.0000 ( 57657 PWs)   bands (ev):

   -25.0240 -12.1377  -9.6193  -7.0606  -1.2391  -0.0012   0.2242   0.4354
     0.4562   0.5108

     highest occupied, lowest unoccupied level (ev):    -7.0606   -1.2391

!    total energy              =     -34.03143573 Ry
     estimated scf accuracy    <       0.00000023 Ry

     The total energy is the sum of the following terms:
     one-electron contribution =     -67.79648574 Ry
     hartree contribution      =      35.26949540 Ry
     xc contribution           =      -8.22301298 Ry
     ewald contribution        =       6.71856760 Ry

     charge density inside the Wigner-Seitz cell:    8.00000000

     reference position (x0):         3.99075622    4.31047608   -0.02891513 bohr

     Dipole moments (with respect to x0):
     Elect   0.4295  -0.5916  -0.1336 au (Ha),   1.0917  -1.5036  -0.3396 Debye
     Ionic  -0.0000   0.0000   0.0000 au (Ha),  -0.0000   0.0000   0.0000 Debye
     Total   0.4295  -0.5916  -0.1336 au (Ha),   1.0917  -1.5036  -0.3396 Debye

     Electrons quadrupole moment        -21.57471256 a.u. (Ha)
          Ions quadrupole moment          7.02223687 a.u. (Ha)
         Total quadrupole moment        -14.55247570 a.u. (Ha)

     *********    MAKOV-PAYNE CORRECTION    *********

     Makov-Payne correction with Madelung constant =   2.8373

     Makov-Payne correction     0.00000000 Ry =  0.000 eV (1st order, 1/a0)
                                0.00008568 Ry =  0.001 eV (2nd order, 1/a0^3)
                                0.00008568 Ry =  0.001 eV (total)

!    Total+Makov-Payne energy  =     -34.03135004 Ry
     Corrected vacuum level    =       0.03077040 eV

     convergence has been achieved in   6 iterations

     Writing all to output data dir ./ecut_file/water.save/ :
     XML data file, charge density, pseudopotentials, collected wavefunctions

     init_run     :      2.12s CPU      2.63s WALL (       1 calls)
     electrons    :     16.70s CPU     17.08s WALL (       1 calls)

     Called by init_run:
     wfcinit      :      0.61s CPU      0.66s WALL (       1 calls)
     potinit      :      0.70s CPU      1.01s WALL (       1 calls)
     hinit0       :      0.67s CPU      0.81s WALL (       1 calls)

     Called by electrons:
     c_bands      :     12.64s CPU     12.66s WALL (       6 calls)
     sum_band     :      1.16s CPU      1.14s WALL (       6 calls)
     v_of_rho     :      2.98s CPU      3.63s WALL (       7 calls)
     mix_rho      :      0.33s CPU      0.32s WALL (       6 calls)

     Called by c_bands:
     init_us_2    :      0.14s CPU      0.11s WALL (      13 calls)
     regterg      :     12.56s CPU     12.59s WALL (       6 calls)

     Called by *egterg:
     rdiaghg      :      0.00s CPU      0.01s WALL (      84 calls)
     h_psi        :     10.30s CPU     10.33s WALL (      85 calls)
     g_psi        :      0.03s CPU      0.05s WALL (      78 calls)

     Called by h_psi:
     h_psi:calbec :      0.47s CPU      0.50s WALL (      85 calls)
     vloc_psi     :      9.45s CPU      9.49s WALL (      85 calls)
     add_vuspsi   :      0.31s CPU      0.31s WALL (      85 calls)

     General routines
     calbec       :      0.47s CPU      0.50s WALL (      85 calls)
     fft          :      2.05s CPU      2.15s WALL (      55 calls)
     ffts         :      0.19s CPU      0.18s WALL (       6 calls)
     fftw         :      9.06s CPU      8.87s WALL (     438 calls)

     Parallel routines

     PWSCF        :     18.86s CPU     19.76s WALL


   This run was terminated on:  11: 3:24   6Dec2024            

=------------------------------------------------------------------------------=
   JOB DONE.
=------------------------------------------------------------------------------=
