
     Program PWSCF v.7.4 starts on  6Dec2024 at 11: 2:47 

     This program is part of the open-source Quantum ESPRESSO suite
     for quantum simulation of materials; please cite
         "P. Giannozzi et al., J. Phys.:Condens. Matter 21 395502 (2009);
         "P. Giannozzi et al., J. Phys.:Condens. Matter 29 465901 (2017);
         "P. Giannozzi et al., J. Chem. Phys. 152 154105 (2020);
          URL http://www.quantum-espresso.org", 
     in publications or presentations arising from this work. More details at
     http://www.quantum-espresso.org/quote

     Parallel version (MPI), running on     1 processors

     MPI processes distributed on     1 nodes
     9588 MiB available memory on the printing compute node when the environment starts

     Waiting for input...
     Reading input from standard input

     Current dimensions of program PWSCF are:
     Max number of different atomic species (ntypx) = 10
     Max number of k-points (npk) =  40000
     Max angular momentum in pseudopotentials (lmaxx) =  4

     gamma-point specific algorithms are used

     Subspace diagonalization in iterative solution of the eigenvalue problem:
     a serial algorithm will be used


     G-vector sticks info
     --------------------
     sticks:   dense  smooth     PW     G-vecs:    dense   smooth      PW
     Sum       10029   10029   2509               755285   755285   94341

     Using Slab Decomposition



     bravais-lattice index     =            1
     lattice parameter (alat)  =      30.0000  a.u.
     unit-cell volume          =   27000.0000 (a.u.)^3
     number of atoms/cell      =            3
     number of atomic types    =            2
     number of electrons       =         8.00
     number of Kohn-Sham states=           10
     kinetic-energy cutoff     =      35.0000  Ry
     charge density cutoff     =     140.0000  Ry
     scf convergence threshold =      1.0E-06
     mixing beta               =       0.7000
     number of iterations used =            8  plain     mixing
     Exchange-correlation= PBE
                           (   1   4   3   4   0   0   0)

     celldm(1)=  30.000000  celldm(2)=   0.000000  celldm(3)=   0.000000
     celldm(4)=   0.000000  celldm(5)=   0.000000  celldm(6)=   0.000000

     crystal axes: (cart. coord. in units of alat)
               a(1) = (   1.000000   0.000000   0.000000 )  
               a(2) = (   0.000000   1.000000   0.000000 )  
               a(3) = (   0.000000   0.000000   1.000000 )  

     reciprocal axes: (cart. coord. in units 2 pi/alat)
               b(1) = (  1.000000  0.000000  0.000000 )  
               b(2) = (  0.000000  1.000000  0.000000 )  
               b(3) = (  0.000000  0.000000  1.000000 )  


     PseudoPot. # 1 for H  read from file:
     /home/paolo/water_2/pp/H_ONCV_PBE-1.2.upf
     MD5 check sum: bf21e08b90ac4ce7d0149ac4e8138190
     Pseudo is Norm-conserving, Zval =  1.0
     Generated using ONCVPSP code by D. R. Hamann
     Using radial grid of  602 points,  2 beta functions with: 
                l(1) =   0
                l(2) =   0

     PseudoPot. # 2 for O  read from file:
     /home/paolo/water_2/pp/O_ONCV_PBE-1.2.upf
     MD5 check sum: e36c48deb68f4e355fffe4602be2c42c
     Pseudo is Norm-conserving, Zval =  6.0
     Generated using ONCVPSP code by D. R. Hamann
     Using radial grid of  602 points,  4 beta functions with: 
                l(1) =   0
                l(2) =   0
                l(3) =   1
                l(4) =   1

     atomic species   valence    mass     pseudopotential
     H                 1.00     1.00794     H ( 1.00)
     O                 6.00    15.99900     O ( 1.00)

     No symmetry found



   Cartesian axes

     site n.     atom                  positions (alat units)
         1        O      tau(   1) = (   0.1267221   0.1523579   0.0009940  )
         2        H      tau(   2) = (   0.1925544   0.1456839  -0.0005238  )
         3        H      tau(   3) = (   0.1113146   0.0896293  -0.0131509  )

     number of k points=     1
                       cart. coord. in units 2pi/alat
        k(    1) = (   0.0000000   0.0000000   0.0000000), wk =   2.0000000

     Dense  grid:   377643 G-vectors     FFT dimensions: ( 120, 120, 120)

     Estimated max dynamical RAM per process >     332.41 MB

     Initial potential from superposition of free atoms

     starting charge       7.9948, renormalised to       8.0000

     negative rho (up, down):  8.796E-02 0.000E+00
     Starting wfcs are random

     total cpu time spent up to now is        3.4 secs

     Self-consistent Calculation

     iteration #  1     ecut=    35.00 Ry     beta= 0.70
     Davidson diagonalization with overlap
     ethr =  1.00E-02,  avg # of iterations = 12.0

     negative rho (up, down):  2.516E-02 0.000E+00

     total cpu time spent up to now is        6.1 secs

     total energy              =     -33.81422811 Ry
     estimated scf accuracy    <       0.16680156 Ry

     iteration #  2     ecut=    35.00 Ry     beta= 0.70
     Davidson diagonalization with overlap
     ethr =  2.09E-03,  avg # of iterations =  5.0

     negative rho (up, down):  1.224E-02 0.000E+00

     total cpu time spent up to now is        7.7 secs

     total energy              =     -33.83398391 Ry
     estimated scf accuracy    <       0.05192064 Ry

     iteration #  3     ecut=    35.00 Ry     beta= 0.70
     Davidson diagonalization with overlap
     ethr =  6.49E-04,  avg # of iterations =  5.0

     negative rho (up, down):  7.565E-04 0.000E+00

     total cpu time spent up to now is        9.2 secs

     total energy              =     -33.84603893 Ry
     estimated scf accuracy    <       0.00538971 Ry

     iteration #  4     ecut=    35.00 Ry     beta= 0.70
     Davidson diagonalization with overlap
     ethr =  6.74E-05,  avg # of iterations = 15.0

     negative rho (up, down):  2.566E-04 0.000E+00

     total cpu time spent up to now is       11.3 secs

     total energy              =     -33.84678909 Ry
     estimated scf accuracy    <       0.00004135 Ry

     iteration #  5     ecut=    35.00 Ry     beta= 0.70
     Davidson diagonalization with overlap
     c_bands:  2 eigenvalues not converged
     ethr =  5.17E-07,  avg # of iterations = 20.0

     negative rho (up, down):  3.743E-06 0.000E+00

     total cpu time spent up to now is       14.4 secs

     total energy              =     -33.84681299 Ry
     estimated scf accuracy    <       0.00000740 Ry

     iteration #  6     ecut=    35.00 Ry     beta= 0.70
     Davidson diagonalization with overlap
     c_bands:  3 eigenvalues not converged
     ethr =  9.26E-08,  avg # of iterations = 20.0

     total cpu time spent up to now is       17.3 secs

     End of self-consistent calculation

          k = 0.0000 0.0000 0.0000 ( 47171 PWs)   bands (ev):

   -25.3637 -12.1678  -9.6948  -7.0424  -1.2337  -0.0134   0.2314   0.4247
     0.4430   0.4966

     highest occupied, lowest unoccupied level (ev):    -7.0424   -1.2337

!    total energy              =     -33.84681471 Ry
     estimated scf accuracy    <       0.00000013 Ry

     The total energy is the sum of the following terms:
     one-electron contribution =     -67.39909706 Ry
     hartree contribution      =      35.01075306 Ry
     xc contribution           =      -8.17703831 Ry
     ewald contribution        =       6.71856760 Ry

     charge density inside the Wigner-Seitz cell:    8.00000000

     reference position (x0):         3.99075622    4.31047608   -0.02891513 bohr

     Dipole moments (with respect to x0):
     Elect   0.4188  -0.5765  -0.1301 au (Ha),   1.0646  -1.4654  -0.3308 Debye
     Ionic  -0.0000   0.0000   0.0000 au (Ha),  -0.0000   0.0000   0.0000 Debye
     Total   0.4188  -0.5765  -0.1301 au (Ha),   1.0646  -1.4654  -0.3308 Debye

     Electrons quadrupole moment        -21.79463924 a.u. (Ha)
          Ions quadrupole moment          7.02223687 a.u. (Ha)
         Total quadrupole moment        -14.77240238 a.u. (Ha)

     *********    MAKOV-PAYNE CORRECTION    *********

     Makov-Payne correction with Madelung constant =   2.8373

     Makov-Payne correction     0.00000000 Ry =  0.000 eV (1st order, 1/a0)
                                0.00008141 Ry =  0.001 eV (2nd order, 1/a0^3)
                                0.00008141 Ry =  0.001 eV (total)

!    Total+Makov-Payne energy  =     -33.84673330 Ry
     Corrected vacuum level    =       0.03143934 eV

     convergence has been achieved in   6 iterations

     Writing all to output data dir ./ecut_file/water.save/ :
     XML data file, charge density, pseudopotentials, collected wavefunctions

     init_run     :      2.50s CPU      3.37s WALL (       1 calls)
     electrons    :     13.62s CPU     14.01s WALL (       1 calls)

     Called by init_run:
     wfcinit      :      0.89s CPU      1.21s WALL (       1 calls)
     potinit      :      0.55s CPU      0.86s WALL (       1 calls)
     hinit0       :      0.95s CPU      1.17s WALL (       1 calls)

     Called by electrons:
     c_bands      :     10.61s CPU     10.61s WALL (       6 calls)
     sum_band     :      0.80s CPU      0.81s WALL (       6 calls)
     v_of_rho     :      2.28s CPU      2.93s WALL (       7 calls)
     mix_rho      :      0.23s CPU      0.23s WALL (       6 calls)

     Called by c_bands:
     init_us_2    :      0.06s CPU      0.09s WALL (      13 calls)
     regterg      :     10.55s CPU     10.55s WALL (       6 calls)

     Called by *egterg:
     rdiaghg      :      0.00s CPU      0.01s WALL (      83 calls)
     h_psi        :      8.53s CPU      8.98s WALL (      84 calls)
     g_psi        :      0.06s CPU      0.05s WALL (      77 calls)

     Called by h_psi:
     h_psi:calbec :      0.36s CPU      0.47s WALL (      84 calls)
     vloc_psi     :      7.89s CPU      8.20s WALL (      84 calls)
     add_vuspsi   :      0.23s CPU      0.27s WALL (      84 calls)

     General routines
     calbec       :      0.36s CPU      0.47s WALL (      84 calls)
     fft          :      1.66s CPU      1.88s WALL (      55 calls)
     ffts         :      0.11s CPU      0.10s WALL (       6 calls)
     fftw         :      7.27s CPU      7.47s WALL (     494 calls)

     Parallel routines

     PWSCF        :     16.14s CPU     17.42s WALL


   This run was terminated on:  11: 3: 4   6Dec2024            

=------------------------------------------------------------------------------=
   JOB DONE.
=------------------------------------------------------------------------------=
