
     Program PWSCF v.7.4 starts on  6Dec2024 at 11: 2:22 

     This program is part of the open-source Quantum ESPRESSO suite
     for quantum simulation of materials; please cite
         "P. Giannozzi et al., J. Phys.:Condens. Matter 21 395502 (2009);
         "P. Giannozzi et al., J. Phys.:Condens. Matter 29 465901 (2017);
         "P. Giannozzi et al., J. Chem. Phys. 152 154105 (2020);
          URL http://www.quantum-espresso.org", 
     in publications or presentations arising from this work. More details at
     http://www.quantum-espresso.org/quote

     Parallel version (MPI), running on     1 processors

     MPI processes distributed on     1 nodes
     9582 MiB available memory on the printing compute node when the environment starts

     Waiting for input...
     Reading input from standard input

     Current dimensions of program PWSCF are:
     Max number of different atomic species (ntypx) = 10
     Max number of k-points (npk) =  40000
     Max angular momentum in pseudopotentials (lmaxx) =  4

     gamma-point specific algorithms are used

     Subspace diagonalization in iterative solution of the eigenvalue problem:
     a serial algorithm will be used


     G-vector sticks info
     --------------------
     sticks:   dense  smooth     PW     G-vecs:    dense   smooth      PW
     Sum        7153    7153   1789               455863   455863   57051

     Using Slab Decomposition



     bravais-lattice index     =            1
     lattice parameter (alat)  =      30.0000  a.u.
     unit-cell volume          =   27000.0000 (a.u.)^3
     number of atoms/cell      =            3
     number of atomic types    =            2
     number of electrons       =         8.00
     number of Kohn-Sham states=           10
     kinetic-energy cutoff     =      25.0000  Ry
     charge density cutoff     =     100.0000  Ry
     scf convergence threshold =      1.0E-06
     mixing beta               =       0.7000
     number of iterations used =            8  plain     mixing
     Exchange-correlation= PBE
                           (   1   4   3   4   0   0   0)

     celldm(1)=  30.000000  celldm(2)=   0.000000  celldm(3)=   0.000000
     celldm(4)=   0.000000  celldm(5)=   0.000000  celldm(6)=   0.000000

     crystal axes: (cart. coord. in units of alat)
               a(1) = (   1.000000   0.000000   0.000000 )  
               a(2) = (   0.000000   1.000000   0.000000 )  
               a(3) = (   0.000000   0.000000   1.000000 )  

     reciprocal axes: (cart. coord. in units 2 pi/alat)
               b(1) = (  1.000000  0.000000  0.000000 )  
               b(2) = (  0.000000  1.000000  0.000000 )  
               b(3) = (  0.000000  0.000000  1.000000 )  


     PseudoPot. # 1 for H  read from file:
     /home/paolo/water_2/pp/H_ONCV_PBE-1.2.upf
     MD5 check sum: bf21e08b90ac4ce7d0149ac4e8138190
     Pseudo is Norm-conserving, Zval =  1.0
     Generated using ONCVPSP code by D. R. Hamann
     Using radial grid of  602 points,  2 beta functions with: 
                l(1) =   0
                l(2) =   0

     PseudoPot. # 2 for O  read from file:
     /home/paolo/water_2/pp/O_ONCV_PBE-1.2.upf
     MD5 check sum: e36c48deb68f4e355fffe4602be2c42c
     Pseudo is Norm-conserving, Zval =  6.0
     Generated using ONCVPSP code by D. R. Hamann
     Using radial grid of  602 points,  4 beta functions with: 
                l(1) =   0
                l(2) =   0
                l(3) =   1
                l(4) =   1

     atomic species   valence    mass     pseudopotential
     H                 1.00     1.00794     H ( 1.00)
     O                 6.00    15.99900     O ( 1.00)

     No symmetry found



   Cartesian axes

     site n.     atom                  positions (alat units)
         1        O      tau(   1) = (   0.1267221   0.1523579   0.0009940  )
         2        H      tau(   2) = (   0.1925544   0.1456839  -0.0005238  )
         3        H      tau(   3) = (   0.1113146   0.0896293  -0.0131509  )

     number of k points=     1
                       cart. coord. in units 2pi/alat
        k(    1) = (   0.0000000   0.0000000   0.0000000), wk =   2.0000000

     Dense  grid:   227932 G-vectors     FFT dimensions: (  96,  96,  96)

     Estimated max dynamical RAM per process >     189.91 MB

     Initial potential from superposition of free atoms

     starting charge       7.9948, renormalised to       8.0000

     negative rho (up, down):  4.395E-01 0.000E+00
     Starting wfcs are random

     total cpu time spent up to now is        2.2 secs

     Self-consistent Calculation

     iteration #  1     ecut=    25.00 Ry     beta= 0.70
     Davidson diagonalization with overlap
     ethr =  1.00E-02,  avg # of iterations = 10.0

     negative rho (up, down):  1.255E-01 0.000E+00

     total cpu time spent up to now is        3.7 secs

     total energy              =     -33.11056591 Ry
     estimated scf accuracy    <       0.18331192 Ry

     iteration #  2     ecut=    25.00 Ry     beta= 0.70
     Davidson diagonalization with overlap
     ethr =  2.29E-03,  avg # of iterations =  5.0

     negative rho (up, down):  4.900E-02 0.000E+00

     total cpu time spent up to now is        4.5 secs

     total energy              =     -33.12407213 Ry
     estimated scf accuracy    <       0.04346968 Ry

     iteration #  3     ecut=    25.00 Ry     beta= 0.70
     Davidson diagonalization with overlap
     ethr =  5.43E-04,  avg # of iterations =  7.0

     negative rho (up, down):  5.661E-03 0.000E+00

     total cpu time spent up to now is        5.3 secs

     total energy              =     -33.13412728 Ry
     estimated scf accuracy    <       0.00783643 Ry

     iteration #  4     ecut=    25.00 Ry     beta= 0.70
     Davidson diagonalization with overlap
     ethr =  9.80E-05,  avg # of iterations =  6.0

     negative rho (up, down):  1.142E-03 0.000E+00

     total cpu time spent up to now is        6.0 secs

     total energy              =     -33.13489437 Ry
     estimated scf accuracy    <       0.00028059 Ry

     iteration #  5     ecut=    25.00 Ry     beta= 0.70
     Davidson diagonalization with overlap
     ethr =  3.51E-06,  avg # of iterations = 17.0

     negative rho (up, down):  7.494E-05 0.000E+00

     total cpu time spent up to now is        7.6 secs

     total energy              =     -33.13504313 Ry
     estimated scf accuracy    <       0.00003283 Ry

     iteration #  6     ecut=    25.00 Ry     beta= 0.70
     Davidson diagonalization with overlap
     ethr =  4.10E-07,  avg # of iterations = 17.0

     total cpu time spent up to now is        8.8 secs

     total energy              =     -33.13504027 Ry
     estimated scf accuracy    <       0.00001363 Ry

     iteration #  7     ecut=    25.00 Ry     beta= 0.70
     Davidson diagonalization with overlap
     c_bands:  1 eigenvalues not converged
     ethr =  1.70E-07,  avg # of iterations = 20.0

     total cpu time spent up to now is        9.9 secs

     End of self-consistent calculation

          k = 0.0000 0.0000 0.0000 ( 28526 PWs)   bands (ev):

   -26.8129 -12.1683  -9.9055  -6.9533  -1.2516  -0.0488   0.2432   0.3910
     0.3997   0.4575

     highest occupied, lowest unoccupied level (ev):    -6.9533   -1.2516

!    total energy              =     -33.13504237 Ry
     estimated scf accuracy    <       0.00000018 Ry

     The total energy is the sum of the following terms:
     one-electron contribution =     -65.87646089 Ry
     hartree contribution      =      34.01461628 Ry
     xc contribution           =      -7.99176537 Ry
     ewald contribution        =       6.71856761 Ry

     charge density inside the Wigner-Seitz cell:    8.00000000

     reference position (x0):         3.99075622    4.31047608   -0.02891513 bohr

     Dipole moments (with respect to x0):
     Elect   0.3694  -0.5084  -0.1147 au (Ha),   0.9388  -1.2922  -0.2914 Debye
     Ionic  -0.0000   0.0000   0.0000 au (Ha),  -0.0000   0.0000   0.0000 Debye
     Total   0.3694  -0.5084  -0.1147 au (Ha),   0.9388  -1.2922  -0.2914 Debye

     Electrons quadrupole moment        -22.75413006 a.u. (Ha)
          Ions quadrupole moment          7.02223687 a.u. (Ha)
         Total quadrupole moment        -15.73189320 a.u. (Ha)

     *********    MAKOV-PAYNE CORRECTION    *********

     Makov-Payne correction with Madelung constant =   2.8373

     Makov-Payne correction     0.00000000 Ry =  0.000 eV (1st order, 1/a0)
                                0.00006331 Ry =  0.001 eV (2nd order, 1/a0^3)
                                0.00006331 Ry =  0.001 eV (total)

!    Total+Makov-Payne energy  =     -33.13497906 Ry
     Corrected vacuum level    =       0.03378367 eV

     convergence has been achieved in   7 iterations

     Writing all to output data dir ./ecut_file/water.save/ :
     XML data file, charge density, pseudopotentials, collected wavefunctions

     init_run     :      1.58s CPU      2.16s WALL (       1 calls)
     electrons    :      7.67s CPU      7.82s WALL (       1 calls)

     Called by init_run:
     wfcinit      :      0.61s CPU      0.80s WALL (       1 calls)
     potinit      :      0.23s CPU      0.46s WALL (       1 calls)
     hinit0       :      0.66s CPU      0.82s WALL (       1 calls)

     Called by electrons:
     c_bands      :      5.81s CPU      5.81s WALL (       7 calls)
     sum_band     :      0.44s CPU      0.44s WALL (       7 calls)
     v_of_rho     :      1.38s CPU      1.66s WALL (       8 calls)
     mix_rho      :      0.17s CPU      0.20s WALL (       7 calls)

     Called by c_bands:
     init_us_2    :      0.06s CPU      0.06s WALL (      15 calls)
     regterg      :      5.78s CPU      5.77s WALL (       7 calls)

     Called by *egterg:
     rdiaghg      :      0.00s CPU      0.01s WALL (      89 calls)
     h_psi        :      4.62s CPU      4.84s WALL (      90 calls)
     g_psi        :      0.05s CPU      0.03s WALL (      82 calls)

     Called by h_psi:
     h_psi:calbec :      0.31s CPU      0.30s WALL (      90 calls)
     vloc_psi     :      4.16s CPU      4.35s WALL (      90 calls)
     add_vuspsi   :      0.14s CPU      0.17s WALL (      90 calls)

     General routines
     calbec       :      0.31s CPU      0.30s WALL (      90 calls)
     fft          :      1.06s CPU      1.21s WALL (      63 calls)
     ffts         :      0.08s CPU      0.06s WALL (       7 calls)
     fftw         :      3.83s CPU      3.97s WALL (     525 calls)

     Parallel routines

     PWSCF        :      9.27s CPU     10.02s WALL


   This run was terminated on:  11: 2:32   6Dec2024            

=------------------------------------------------------------------------------=
   JOB DONE.
=------------------------------------------------------------------------------=
